 vasp.6.1.2 22Jul20 (build Dec 05 2020 14:50:36) complex                        
  
 executed on         CrayXC-Intel date 2021.05.09  13:10:20
 running on   72 total cores
 distrk:  each k-point on   72 cores,    1 groups
 distr:  one band on NCORE=   6 cores,   12 groups


--------------------------------------------------------------------------------------------------------


 INCAR:
 POTCAR:    PAW_PBE Li_sv 10Sep2004               
 POTCAR:    PAW_PBE Ti_pv 07Sep2000               
 POTCAR:    PAW_PBE Fe_pv 02Aug2007               
 POTCAR:    PAW_PBE Co 02Aug2007                  
 POTCAR:    PAW_PBE Cu_pv 06Sep2000               
 POTCAR:    PAW_PBE Ni_pv 06Sep2000               
 POTCAR:    PAW_PBE O 08Apr2002                   
 POTCAR:    PAW_PBE Li_sv 10Sep2004               
   VRHFIN =Li: 1s2s2p                                                                               
   LEXCH  = PE                                                                                      
   EATOM  =   202.7858 eV,   14.9043 Ry                                                             
                                                                                                    
   TITEL  = PAW_PBE Li_sv 10Sep2004                                                                 
   LULTRA =        F    use ultrasoft PP ?                                                          
   IUNSCR =        0    unscreen: 0-lin 1-nonlin 2-no                                               
   RPACOR =    0.000    partial core radius                                                         
   POMASS =    7.010; ZVAL   =    3.000    mass and valenz                                          
   RCORE  =    1.700    outmost cutoff radius                                                       
   RWIGS  =    2.050; RWIGS  =    1.085    wigner-seitz radius (au A)                               
   ENMAX  =  499.034; ENMIN  =  374.276 eV                                                          
   ICORE  =        2    local potential                                                             
   LCOR   =        T    correct aug charges                                                         
   LPAW   =        T    paw PP                                                                      
   EAUG   =  628.945                                                                                
   RMAX   =    1.732    core radius for proj-oper                                                   
   RAUG   =    1.300    factor for augmentation sphere                                              
   RDEP   =    1.728    radius for radial grids                                                     
   RDEPT  =    1.329    core radius for aug-charge                                                  
                                                                                                    
   Atomic configuration                                                                             
    4 entries                                                                                       
     n  l   j            E        occ.                                                              
     1  0  0.50       -51.8549   2.0000                                                             
     2  0  0.50        -2.8742   1.0000                                                             
     2  1  0.50        -1.3606   0.0000                                                             
     3  2  1.50        -1.3606   0.0000                                                             
   Description                                                                                      
     l       E           TYP  RCUT    TYP  RCUT                                                     
     0    -51.8548813     23  1.400                                                                 
     0     -2.8742052     23  1.700                                                                 
     1     -1.3605826     23  1.400                                                                 
     2     -1.3605826     23  1.400                                                                 
  local pseudopotential read in
  atomic valenz-charges read in
  non local Contribution for L=           0  read in
    real space projection operators read in
  non local Contribution for L=           0  read in
    real space projection operators read in
  non local Contribution for L=           1  read in
    real space projection operators read in
    PAW grid and wavefunctions read in
 
   number of l-projection  operators is LMAX  =           3
   number of lm-projection operators is LMMAX =           5
 
 POTCAR:    PAW_PBE Ti_pv 07Sep2000               
   VRHFIN =Ti: d3 s1                                                                                
   LEXCH  = PE                                                                                      
   EATOM  =  1042.5995 eV,   76.6289 Ry                                                             
                                                                                                    
   TITEL  = PAW_PBE Ti_pv 07Sep2000                                                                 
   LULTRA =        F    use ultrasoft PP ?                                                          
   IUNSCR =        1    unscreen: 0-lin 1-nonlin 2-no                                               
   RPACOR =    2.200    partial core radius                                                         
   POMASS =   47.880; ZVAL   =   10.000    mass and valenz                                          
   RCORE  =    2.500    outmost cutoff radius                                                       
   RWIGS  =    2.500; RWIGS  =    1.323    wigner-seitz radius (au A)                               
   ENMAX  =  222.335; ENMIN  =  166.751 eV                                                          
   RCLOC  =    1.701    cutoff for local pot                                                        
   LCOR   =        T    correct aug charges                                                         
   LPAW   =        T    paw PP                                                                      
   EAUG   =  482.848                                                                                
   DEXC   =    0.000                                                                                
   RMAX   =    2.564    core radius for proj-oper                                                   
   RAUG   =    1.300    factor for augmentation sphere                                              
   RDEP   =    2.538    radius for radial grids                                                     
   RDEPT  =    1.952    core radius for aug-charge                                                  
                                                                                                    
   Atomic configuration                                                                             
    8 entries                                                                                       
     n  l   j            E        occ.                                                              
     1  0  0.50     -4865.3608   2.0000                                                             
     2  0  0.50      -533.1368   2.0000                                                             
     2  1  1.50      -440.5031   6.0000                                                             
     3  0  0.50       -59.3186   2.0000                                                             
     3  1  1.50       -35.7012   6.0000                                                             
     3  2  2.50        -1.9157   3.0000                                                             
     4  0  0.50        -3.7291   1.0000                                                             
     4  3  2.50        -1.3606   0.0000                                                             
   Description                                                                                      
     l       E           TYP  RCUT    TYP  RCUT                                                     
     1    -35.7012140     23  2.300                                                                 
     1     -1.3605826     23  2.300                                                                 
     2     -1.9156996     23  2.500                                                                 
     2     -0.4063033     23  2.500                                                                 
     0     -3.7290856     23  2.500                                                                 
     0     20.4087390     23  2.500                                                                 
  local pseudopotential read in
  partial core-charges read in
  partial kinetic energy density read in
  atomic valenz-charges read in
  non local Contribution for L=           1  read in
    real space projection operators read in
  non local Contribution for L=           1  read in
    real space projection operators read in
  non local Contribution for L=           2  read in
    real space projection operators read in
  non local Contribution for L=           2  read in
    real space projection operators read in
  non local Contribution for L=           0  read in
    real space projection operators read in
  non local Contribution for L=           0  read in
    real space projection operators read in
    PAW grid and wavefunctions read in
 
   number of l-projection  operators is LMAX  =           6
   number of lm-projection operators is LMMAX =          18
 
 POTCAR:    PAW_PBE Fe_pv 02Aug2007               
   VRHFIN =Fe:  3pd7s1                                                                              
   LEXCH  = PE                                                                                      
   EATOM  =  2457.4239 eV,  180.6156 Ry                                                             
                                                                                                    
   TITEL  = PAW_PBE Fe_pv 02Aug2007                                                                 
   LULTRA =        F    use ultrasoft PP ?                                                          
   IUNSCR =        1    unscreen: 0-lin 1-nonlin 2-no                                               
   RPACOR =    1.750    partial core radius                                                         
   POMASS =   55.847; ZVAL   =   14.000    mass and valenz                                          
   RCORE  =    2.200    outmost cutoff radius                                                       
   RWIGS  =    2.200; RWIGS  =    1.164    wigner-seitz radius (au A)                               
   ENMAX  =  293.238; ENMIN  =  219.928 eV                                                          
   ICORE  =        3    local potential                                                             
   LCOR   =        T    correct aug charges                                                         
   LPAW   =        T    paw PP                                                                      
   EAUG   =  578.342                                                                                
   DEXC   =    0.000                                                                                
   RMAX   =    2.249    core radius for proj-oper                                                   
   RAUG   =    1.300    factor for augmentation sphere                                              
   RDEP   =    2.296    radius for radial grids                                                     
   RDEPT  =    1.766    core radius for aug-charge                                                  
                                                                                                    
   Atomic configuration                                                                             
    8 entries                                                                                       
     n  l   j            E        occ.                                                              
     1  0  0.50     -6993.8440   2.0000                                                             
     2  0  0.50      -814.6047   2.0000                                                             
     2  1  1.50      -693.3689   6.0000                                                             
     3  0  0.50       -89.4732   2.0000                                                             
     3  1  1.50       -55.6373   6.0000                                                             
     3  2  2.50        -3.8151   7.0000                                                             
     4  0  0.50        -4.2551   1.0000                                                             
     4  3  2.50        -1.3606   0.0000                                                             
   Description                                                                                      
     l       E           TYP  RCUT    TYP  RCUT                                                     
     1    -55.6372668     23  2.000                                                                 
     1     -5.4423304     23  2.000                                                                 
     2     -3.8151096     23  2.200                                                                 
     2     -5.1756922     23  2.200                                                                 
     0     -4.2550951     23  2.200                                                                 
     0     27.2116520     23  2.200                                                                 
     3     -1.3605826     23  2.200                                                                 
  local pseudopotential read in
  partial core-charges read in
  partial kinetic energy density read in
  atomic valenz-charges read in
  non local Contribution for L=           1  read in
    real space projection operators read in
  non local Contribution for L=           1  read in
    real space projection operators read in
  non local Contribution for L=           2  read in
    real space projection operators read in
  non local Contribution for L=           2  read in
    real space projection operators read in
  non local Contribution for L=           0  read in
    real space projection operators read in
  non local Contribution for L=           0  read in
    real space projection operators read in
    PAW grid and wavefunctions read in
 
   number of l-projection  operators is LMAX  =           6
   number of lm-projection operators is LMMAX =          18
 
 POTCAR:    PAW_PBE Co 02Aug2007                  
   VRHFIN =Co: d8 s1                                                                                
   LEXCH  = PE                                                                                      
   EATOM  =   813.3670 eV,   59.7808 Ry                                                             
                                                                                                    
   TITEL  = PAW_PBE Co 02Aug2007                                                                    
   LULTRA =        F    use ultrasoft PP ?                                                          
   IUNSCR =        1    unscreen: 0-lin 1-nonlin 2-no                                               
   RPACOR =    2.000    partial core radius                                                         
   POMASS =   58.933; ZVAL   =    9.000    mass and valenz                                          
   RCORE  =    2.300    outmost cutoff radius                                                       
   RWIGS  =    2.460; RWIGS  =    1.302    wigner-seitz radius (au A)                               
   ENMAX  =  267.968; ENMIN  =  200.976 eV                                                          
   RCLOC  =    1.203    cutoff for local pot                                                        
   LCOR   =        T    correct aug charges                                                         
   LPAW   =        T    paw PP                                                                      
   EAUG   =  477.818                                                                                
   DEXC   =    0.000                                                                                
   RMAX   =    2.360    core radius for proj-oper                                                   
   RAUG   =    1.300    factor for augmentation sphere                                              
   RDEP   =    2.393    radius for radial grids                                                     
   RDEPT  =    1.864    core radius for aug-charge                                                  
                                                                                                    
   Atomic configuration                                                                             
    9 entries                                                                                       
     n  l   j            E        occ.                                                              
     1  0  0.50     -7587.6674   2.0000                                                             
     2  0  0.50      -893.6084   2.0000                                                             
     2  1  1.50      -764.5805   6.0000                                                             
     3  0  0.50       -97.5973   2.0000                                                             
     3  1  1.50       -60.9648   6.0000                                                             
     3  2  2.50        -4.2382   8.0000                                                             
     4  0  0.50        -4.3746   1.0000                                                             
     4  1  1.50        -4.0817   0.0000                                                             
     4  3  2.50        -1.3606   0.0000                                                             
   Description                                                                                      
     l       E           TYP  RCUT    TYP  RCUT                                                     
     2     -4.2382362     23  2.300                                                                 
     2     -5.5988188     23  2.300                                                                 
     0     -4.3745797     23  2.300                                                                 
     0      5.7660125     23  2.300                                                                 
     1     -2.7211652     23  2.300                                                                 
     1     16.9860234     23  2.300                                                                 
  local pseudopotential read in
  partial core-charges read in
  partial kinetic energy density read in
  atomic valenz-charges read in
  non local Contribution for L=           2  read in
    real space projection operators read in
  non local Contribution for L=           2  read in
    real space projection operators read in
  non local Contribution for L=           0  read in
    real space projection operators read in
  non local Contribution for L=           0  read in
    real space projection operators read in
  non local Contribution for L=           1  read in
    real space projection operators read in
  non local Contribution for L=           1  read in
    real space projection operators read in
    PAW grid and wavefunctions read in
 
   number of l-projection  operators is LMAX  =           6
   number of lm-projection operators is LMMAX =          18
 
 POTCAR:    PAW_PBE Cu_pv 06Sep2000               
   VRHFIN =Cu: d10 p1                                                                               
   LEXCH  = PE                                                                                      
   EATOM  =  4120.1201 eV,  302.8203 Ry                                                             
                                                                                                    
   TITEL  = PAW_PBE Cu_pv 06Sep2000                                                                 
   LULTRA =        F    use ultrasoft PP ?                                                          
   IUNSCR =        1    unscreen: 0-lin 1-nonlin 2-no                                               
   RPACOR =    1.500    partial core radius                                                         
   POMASS =   63.546; ZVAL   =   17.000    mass and valenz                                          
   RCORE  =    2.000    outmost cutoff radius                                                       
   RWIGS  =    2.000; RWIGS  =    1.058    wigner-seitz radius (au A)                               
   ENMAX  =  368.648; ENMIN  =  276.486 eV                                                          
   RCLOC  =    1.304    cutoff for local pot                                                        
   LCOR   =        T    correct aug charges                                                         
   LPAW   =        T    paw PP                                                                      
   EAUG   =  758.233                                                                                
   DEXC   =    0.000                                                                                
   RMAX   =    2.046    core radius for proj-oper                                                   
   RAUG   =    1.300    factor for augmentation sphere                                              
   RDEP   =    2.025    radius for radial grids                                                     
   RDEPT  =    1.558    core radius for aug-charge                                                  
                                                                                                    
   Atomic configuration                                                                             
    8 entries                                                                                       
     n  l   j            E        occ.                                                              
     1  0  0.50     -8850.2467   2.0000                                                             
     2  0  0.50     -1062.3498   2.0000                                                             
     2  1  1.50      -916.8226   6.0000                                                             
     3  0  0.50      -114.6929   2.0000                                                             
     3  1  1.50       -72.1325   6.0000                                                             
     3  2  2.50        -5.0394  10.0000                                                             
     4  0  0.50        -4.6097   1.0000                                                             
     4  3  2.50        -1.3606   0.0000                                                             
   Description                                                                                      
     l       E           TYP  RCUT    TYP  RCUT                                                     
     1    -72.1324777     23  1.700                                                                 
     1     -1.3605826     23  1.700                                                                 
     2     -5.0393776     23  2.000                                                                 
     2     -6.3999602     23  2.000                                                                 
     0     -4.6097062     23  1.800                                                                 
     0     14.1620818     23  1.800                                                                 
  local pseudopotential read in
  partial core-charges read in
  partial kinetic energy density read in
  atomic valenz-charges read in
  non local Contribution for L=           1  read in
    real space projection operators read in
  non local Contribution for L=           1  read in
    real space projection operators read in
  non local Contribution for L=           2  read in
    real space projection operators read in
  non local Contribution for L=           2  read in
    real space projection operators read in
  non local Contribution for L=           0  read in
    real space projection operators read in
  non local Contribution for L=           0  read in
    real space projection operators read in
    PAW grid and wavefunctions read in
 
   number of l-projection  operators is LMAX  =           6
   number of lm-projection operators is LMMAX =          18
 
 POTCAR:    PAW_PBE Ni_pv 06Sep2000               
   VRHFIN =Ni:                                                                                      
   LEXCH  = PE                                                                                      
   EATOM  =  3501.1230 eV,  257.3253 Ry                                                             
                                                                                                    
   TITEL  = PAW_PBE Ni_pv 06Sep2000                                                                 
   LULTRA =        F    use ultrasoft PP ?                                                          
   IUNSCR =        1    unscreen: 0-lin 1-nonlin 2-no                                               
   RPACOR =    1.500    partial core radius                                                         
   POMASS =   58.690; ZVAL   =   16.000    mass and valenz                                          
   RCORE  =    2.000    outmost cutoff radius                                                       
   RWIGS  =    2.000; RWIGS  =    1.058    wigner-seitz radius (au A)                               
   ENMAX  =  367.986; ENMIN  =  275.989 eV                                                          
   RCLOC  =    1.301    cutoff for local pot                                                        
   LCOR   =        T    correct aug charges                                                         
   LPAW   =        T    paw PP                                                                      
   EAUG   =  703.443                                                                                
   DEXC   =    0.000                                                                                
   RMAX   =    2.041    core radius for proj-oper                                                   
   RAUG   =    1.300    factor for augmentation sphere                                              
   RDEP   =    2.103    radius for radial grids                                                     
   RDEPT  =    1.618    core radius for aug-charge                                                  
                                                                                                    
   Atomic configuration                                                                             
    8 entries                                                                                       
     n  l   j            E        occ.                                                              
     1  0  0.50     -8206.4253   2.0000                                                             
     2  0  0.50      -976.1748   2.0000                                                             
     2  1  1.50      -839.0571   6.0000                                                             
     3  0  0.50      -105.9991   2.0000                                                             
     3  1  1.50       -66.4603   6.0000                                                             
     3  2  2.50        -4.6458   9.0000                                                             
     4  0  0.50        -4.4926   1.0000                                                             
     4  3  2.50        -1.3606   0.0000                                                             
   Description                                                                                      
     l       E           TYP  RCUT    TYP  RCUT                                                     
     1    -66.4602962     23  1.700                                                                 
     1     -1.3605826     23  1.700                                                                 
     2     -4.6457867     23  2.000                                                                 
     2     -6.0063693     23  2.000                                                                 
     0     -4.4925576     23  1.900                                                                 
     0     16.3626226     23  1.900                                                                 
  local pseudopotential read in
  partial core-charges read in
  partial kinetic energy density read in
  atomic valenz-charges read in
  non local Contribution for L=           1  read in
    real space projection operators read in
  non local Contribution for L=           1  read in
    real space projection operators read in
  non local Contribution for L=           2  read in
    real space projection operators read in
  non local Contribution for L=           2  read in
    real space projection operators read in
  non local Contribution for L=           0  read in
    real space projection operators read in
  non local Contribution for L=           0  read in
    real space projection operators read in
    PAW grid and wavefunctions read in
 
   number of l-projection  operators is LMAX  =           6
   number of lm-projection operators is LMMAX =          18
 
 POTCAR:    PAW_PBE O 08Apr2002                   
   VRHFIN =O: s2p4                                                                                  
   LEXCH  = PE                                                                                      
   EATOM  =   432.3788 eV,   31.7789 Ry                                                             
                                                                                                    
   TITEL  = PAW_PBE O 08Apr2002                                                                     
   LULTRA =        F    use ultrasoft PP ?                                                          
   IUNSCR =        1    unscreen: 0-lin 1-nonlin 2-no                                               
   RPACOR =    1.200    partial core radius                                                         
   POMASS =   16.000; ZVAL   =    6.000    mass and valenz                                          
   RCORE  =    1.520    outmost cutoff radius                                                       
   RWIGS  =    1.550; RWIGS  =    0.820    wigner-seitz radius (au A)                               
   ENMAX  =  400.000; ENMIN  =  300.000 eV                                                          
   ICORE  =        2    local potential                                                             
   LCOR   =        T    correct aug charges                                                         
   LPAW   =        T    paw PP                                                                      
   EAUG   =  605.392                                                                                
   DEXC   =    0.000                                                                                
   RMAX   =    1.553    core radius for proj-oper                                                   
   RAUG   =    1.300    factor for augmentation sphere                                              
   RDEP   =    1.550    radius for radial grids                                                     
   RDEPT  =    1.329    core radius for aug-charge                                                  
                                                                                                    
   Atomic configuration                                                                             
    4 entries                                                                                       
     n  l   j            E        occ.                                                              
     1  0  0.50      -514.6923   2.0000                                                             
     2  0  0.50       -23.9615   2.0000                                                             
     2  1  0.50        -9.0305   4.0000                                                             
     3  2  1.50        -9.5241   0.0000                                                             
   Description                                                                                      
     l       E           TYP  RCUT    TYP  RCUT                                                     
     0    -23.9615318     23  1.200                                                                 
     0     -9.5240782     23  1.200                                                                 
     1     -9.0304911     23  1.520                                                                 
     1      8.1634956     23  1.520                                                                 
     2     -9.5240782      7  1.500                                                                 
  local pseudopotential read in
  partial core-charges read in
  partial kinetic energy density read in
  kinetic energy density of atom read in
  atomic valenz-charges read in
  non local Contribution for L=           0  read in
    real space projection operators read in
  non local Contribution for L=           0  read in
    real space projection operators read in
  non local Contribution for L=           1  read in
    real space projection operators read in
  non local Contribution for L=           1  read in
    real space projection operators read in
    PAW grid and wavefunctions read in
 
   number of l-projection  operators is LMAX  =           4
   number of lm-projection operators is LMMAX =           8
 
 Optimization of the real space projectors (new method)

 maximal supplied QI-value         = 22.11
 optimisation between [QCUT,QGAM] = [ 11.50, 23.22] = [ 37.02,150.92] Ry 
 Optimized for a Real-space Cutoff    1.08 Angstroem

   l    n(q)    QCUT    max X(q) W(low)/X(q) W(high)/X(q)  e(spline) 
   0      7    11.497    10.506    0.36E-04    0.62E-04    0.14E-07
   0      7    11.497     8.367    0.65E-04    0.14E-03    0.28E-07
   1      7    11.497     8.983    0.21E-03    0.43E-03    0.90E-07
 Optimization of the real space projectors (new method)

 maximal supplied QI-value         = 15.12
 optimisation between [QCUT,QGAM] = [ 11.64, 23.28] = [ 37.95,151.78] Ry 
 Optimized for a Real-space Cutoff    1.49 Angstroem

   l    n(q)    QCUT    max X(q) W(low)/X(q) W(high)/X(q)  e(spline) 
   1     10    11.641     4.216    0.17E-04    0.40E-04    0.50E-07
   1     10    11.641     5.422    0.66E-04    0.10E-03    0.13E-06
   2      9    11.641    72.084    0.68E-04    0.13E-03    0.50E-06
   2      9    11.641    65.965    0.66E-04    0.13E-03    0.50E-06
   0     10    11.641    41.531    0.10E-03    0.87E-04    0.31E-06
   0     10    11.641    16.290    0.75E-04    0.66E-04    0.24E-06
 Optimization of the real space projectors (new method)

 maximal supplied QI-value         = 17.01
 optimisation between [QCUT,QGAM] = [ 11.57, 23.30] = [ 37.45,152.03] Ry 
 Optimized for a Real-space Cutoff    1.45 Angstroem

   l    n(q)    QCUT    max X(q) W(low)/X(q) W(high)/X(q)  e(spline) 
   1     10    11.565     4.267    0.91E-04    0.15E-03    0.13E-06
   1     10    11.565     5.750    0.14E-03    0.22E-03    0.20E-06
   2      9    11.565    53.656    0.13E-03    0.57E-04    0.16E-06
   2      9    11.565    49.521    0.13E-03    0.59E-04    0.16E-06
   0     10    11.565    31.246    0.61E-04    0.74E-05    0.89E-07
   0     10    11.565    12.201    0.44E-04    0.68E-05    0.74E-07
 Optimization of the real space projectors (new method)

 maximal supplied QI-value         = 16.25
 optimisation between [QCUT,QGAM] = [ 11.54, 23.24] = [ 37.28,151.24] Ry 
 Optimized for a Real-space Cutoff    1.45 Angstroem

   l    n(q)    QCUT    max X(q) W(low)/X(q) W(high)/X(q)  e(spline) 
   2      9    11.539    65.824    0.19E-03    0.47E-04    0.16E-06
   2      9    11.539    61.429    0.20E-03    0.48E-04    0.16E-06
   0     10    11.539    56.174    0.76E-04    0.45E-04    0.23E-06
   0     10    11.539    31.263    0.69E-04    0.41E-04    0.21E-06
   1     10    11.539    19.828    0.78E-04    0.14E-03    0.70E-07
   1     10    11.539    15.139    0.65E-04    0.12E-03    0.64E-07
 Optimization of the real space projectors (new method)

 maximal supplied QI-value         = 18.90
 optimisation between [QCUT,QGAM] = [ 11.53, 23.24] = [ 37.21,151.29] Ry 
 Optimized for a Real-space Cutoff    1.36 Angstroem

   l    n(q)    QCUT    max X(q) W(low)/X(q) W(high)/X(q)  e(spline) 
   1      9    11.527     3.172    0.21E-04    0.38E-04    0.11E-06
   1      9    11.527     4.083    0.67E-04    0.79E-04    0.20E-06
   2      9    11.527    65.342    0.13E-03    0.28E-03    0.26E-06
   2      9    11.527    61.381    0.13E-03    0.29E-03    0.26E-06
   0      9    11.527    65.742    0.32E-04    0.21E-04    0.72E-07
   0      9    11.527    30.431    0.28E-04    0.19E-04    0.65E-07
 Optimization of the real space projectors (new method)

 maximal supplied QI-value         = 18.90
 optimisation between [QCUT,QGAM] = [ 11.53, 23.24] = [ 37.21,151.29] Ry 
 Optimized for a Real-space Cutoff    1.36 Angstroem

   l    n(q)    QCUT    max X(q) W(low)/X(q) W(high)/X(q)  e(spline) 
   1      9    11.527     2.836    0.16E-04    0.30E-04    0.95E-07
   1      9    11.527     4.023    0.73E-04    0.81E-04    0.21E-06
   2      9    11.527    73.368    0.15E-03    0.29E-03    0.28E-06
   2      9    11.527    69.010    0.15E-03    0.29E-03    0.29E-06
   0      9    11.527    54.797    0.43E-04    0.28E-04    0.85E-07
   0      9    11.527    24.266    0.33E-04    0.24E-04    0.75E-07
 Optimization of the real space projectors (new method)

 maximal supplied QI-value         = 24.76
 optimisation between [QCUT,QGAM] = [ 11.64, 23.27] = [ 37.91,151.63] Ry 
 Optimized for a Real-space Cutoff    1.14 Angstroem

   l    n(q)    QCUT    max X(q) W(low)/X(q) W(high)/X(q)  e(spline) 
   0      8    11.635    20.381    0.10E-03    0.33E-03    0.24E-06
   0      8    11.635    15.268    0.11E-03    0.35E-03    0.26E-06
   1      7    11.635     5.964    0.24E-03    0.31E-03    0.30E-06
   1      7    11.635     5.382    0.22E-03    0.25E-03    0.26E-06
  PAW_PBE Li_sv 10Sep2004               :
 energy of atom  1       EATOM= -202.7858
 kinetic energy error for atom=    0.0130 (will be added to EATOM!!)
  PAW_PBE Ti_pv 07Sep2000               :
 energy of atom  2       EATOM=-1042.5995
 kinetic energy error for atom=    0.0019 (will be added to EATOM!!)
  PAW_PBE Fe_pv 02Aug2007               :
 energy of atom  3       EATOM=-2457.4239
 kinetic energy error for atom=    0.0062 (will be added to EATOM!!)
  PAW_PBE Co 02Aug2007                  :
 energy of atom  4       EATOM= -813.3670
 kinetic energy error for atom=    0.0028 (will be added to EATOM!!)
  PAW_PBE Cu_pv 06Sep2000               :
 energy of atom  5       EATOM=-4120.1201
 kinetic energy error for atom=    0.0541 (will be added to EATOM!!)
  PAW_PBE Ni_pv 06Sep2000               :
 energy of atom  6       EATOM=-3501.1230
 kinetic energy error for atom=    0.0575 (will be added to EATOM!!)
  PAW_PBE O 08Apr2002                   :
 energy of atom  7       EATOM= -432.3788
 kinetic energy error for atom=    0.0208 (will be added to EATOM!!)
 
 
 POSCAR: Li9 Ti2 Fe2 Co1 Cu2 Ni2 O18
  positions in direct lattice
  No initial velocities read in
 exchange correlation table for  LEXCH =        8
   RHO(1)=    0.500       N(1)  =     2000
   RHO(2)=  100.500       N(2)  =     4000
 


--------------------------------------------------------------------------------------------------------


 ion  position               nearest neighbor table
   1  0.000  0.021  0.970-  22 2.02  20 2.03  32 2.10  26 2.13  35 2.14  11 2.89
   2  0.994  0.026  0.492-  20 1.96  21 1.98  32 2.06  36 2.13
   3  0.989  0.318  0.031-  32 2.00  33 2.05  22 2.08  21 2.13  34 2.23
   4  0.333  0.984  0.026-  25 1.98  19 2.05  31 2.13  28 2.14  21 2.22  14 2.83
   5  0.330  0.991  0.493-  26 2.03  19 2.06  27 2.09  21 2.10  22 2.25
   6  0.665  0.013  0.990-  20 2.04  36 2.17  27 2.17  19 2.20  28 2.21  35 2.26
   7  0.684  0.330  0.980-  20 1.97  34 2.01  27 2.14  29 2.18  32 2.19  30 2.27
   8  0.693  0.325  0.507-  20 1.96  33 2.02  32 2.08  28 2.13  30 2.27
   9  0.653  0.665  0.501-  30 2.05  19 2.07  31 2.07  33 2.11  35 2.12  34 2.25  14 2.80
  10  0.342  0.313  0.524-  22 1.82  28 1.89  27 1.95  29 2.03  24 2.13  23 2.34  11 2.91
  11  0.677  0.000  0.480-  32 1.81  27 1.93  35 1.96  31 2.09  28 2.13  36 2.16   1 2.89  10 2.91
                            13 2.92
  12  0.986  0.678  0.997-  33 1.90  26 1.97  35 2.07  36 2.08  24 2.16  23 2.23
  13  0.996  0.670  0.497-  34 1.93  25 1.97  36 2.03  23 2.06  24 2.07  35 2.07  11 2.92  14 2.95

  14  0.336  0.669  0.992-  25 1.93  30 1.93  29 1.94  26 1.94  31 1.97  23 2.03   9 2.80   4 2.83
                            13 2.95
  15  0.334  0.327  0.011-  21 1.90  30 1.94  23 2.11  28 2.13
  16  0.335  0.672  0.494-  19 1.85  24 1.92  26 2.08  30 2.11  25 2.11  29 2.14
  17  0.995  0.329  0.505-  20 1.87  21 1.95  34 2.00  23 2.09  22 2.12  33 2.20
  18  0.660  0.661  0.009-  19 2.03  29 2.05  31 2.05  36 2.10  33 2.12  34 2.19
  19  0.495  0.819  0.259-  16 1.85  18 2.03   4 2.05   5 2.06   9 2.07   6 2.20
  20  0.840  0.174  0.740-  17 1.87   8 1.96   2 1.96   7 1.97   1 2.03   6 2.04
  21  0.164  0.183  0.259-  15 1.90  17 1.95   2 1.98   5 2.10   3 2.13   4 2.22
  22  0.168  0.188  0.734-  10 1.82   1 2.02   3 2.08  17 2.12   5 2.25
  23  0.163  0.506  0.250-  14 2.03  13 2.06  17 2.09  15 2.11  12 2.23  10 2.34
  24  0.169  0.521  0.716-  16 1.92  13 2.07  10 2.13  12 2.16
  25  0.179  0.811  0.241-  14 1.93  13 1.97   4 1.98  16 2.11
  26  0.176  0.811  0.783-  14 1.94  12 1.97   5 2.03  16 2.08   1 2.13
  27  0.506  0.157  0.290-  11 1.93  10 1.95   5 2.09   7 2.14   6 2.17
  28  0.496  0.173  0.731-  10 1.89   8 2.13  11 2.13  15 2.13   4 2.14   6 2.21
  29  0.477  0.508  0.231-  14 1.94  10 2.03  18 2.05  16 2.14   7 2.18
  30  0.473  0.507  0.774-  14 1.93  15 1.94   9 2.05  16 2.11   7 2.27   8 2.27
  31  0.509  0.822  0.760-  14 1.97  18 2.05   9 2.07  11 2.09   4 2.13
  32  0.825  0.151  0.274-  11 1.81   3 2.00   2 2.06   8 2.08   1 2.10   7 2.19
  33  0.840  0.510  0.229-  12 1.90   8 2.02   3 2.05   9 2.11  18 2.12  17 2.20
  34  0.848  0.499  0.729-  13 1.93  17 2.00   7 2.01  18 2.19   3 2.23   9 2.25
  35  0.834  0.834  0.259-  11 1.96  13 2.07  12 2.07   9 2.12   1 2.14   6 2.26
  36  0.836  0.832  0.741-  13 2.03  12 2.08  18 2.10   2 2.13  11 2.16   6 2.17
 

IMPORTANT INFORMATION: All symmetrisations will be switched off!
NOSYMM: (Re-)initialisation of all symmetry stuff for point group C_1.


----------------------------------------------------------------------------------------

                                     Primitive cell                                     

  volume of cell :     325.8471

  direct lattice vectors                    reciprocal lattice vectors
     0.003152000  6.461509000  6.039393000    -0.079987986  0.077476720  0.082729440
     6.249641000  0.002016000  6.040655000     0.080082585 -0.077352916  0.082717608
     4.173467000  4.314738000 -0.005615000     0.119748093  0.115775146 -0.123929606

  length of vectors
     8.844511083  8.691808185  6.002901160     0.138725918  0.138704351  0.207610302

  position of ions in fractional coordinates (direct lattice)
     0.000204000  0.021288000  0.970268000
     0.994211000  0.026178000  0.492309000
     0.988796000  0.318330000  0.030666000
     0.332726000  0.984227000  0.026243000
     0.330094000  0.990667000  0.493435000
     0.664793000  0.012684000  0.989824000
     0.683937000  0.329652000  0.979977000
     0.692545000  0.324970000  0.507481000
     0.652737000  0.665419000  0.501327000
     0.342157000  0.312765000  0.524014000
     0.676662000  0.000229000  0.480095000
     0.986407000  0.678210000  0.997445000
     0.995622000  0.670063000  0.496904000
     0.336406000  0.669044000  0.991802000
     0.333923000  0.327178000  0.010782000
     0.335210000  0.672281000  0.494476000
     0.994790000  0.328940000  0.505382000
     0.660198000  0.661120000  0.008812000
     0.494772000  0.818531000  0.258875000
     0.839959000  0.174318000  0.740255000
     0.163817000  0.183036000  0.258769000
     0.168109000  0.188054000  0.733798000
     0.163337000  0.505696000  0.249806000
     0.168794000  0.520945000  0.715764000
     0.179342000  0.810943000  0.240709000
     0.176120000  0.811237000  0.782528000
     0.505798000  0.156898000  0.289950000
     0.496131000  0.173196000  0.731411000
     0.476503000  0.508410000  0.230628000
     0.473411000  0.506544000  0.774135000
     0.509295000  0.822171000  0.759676000
     0.824885000  0.150844000  0.274175000
     0.839531000  0.510404000  0.229270000
     0.847924000  0.498669000  0.729218000
     0.834465000  0.834494000  0.258723000
     0.836389000  0.832365000  0.741069000

  ion indices of the primitive-cell ions
   primitive index   ion index
                 1           1
                 2           2
                 3           3
                 4           4
                 5           5
                 6           6
                 7           7
                 8           8
                 9           9
                10          10
                11          11
                12          12
                13          13
                14          14
                15          15
                16          16
                17          17
                18          18
                19          19
                20          20
                21          21
                22          22
                23          23
                24          24
                25          25
                26          26
                27          27
                28          28
                29          29
                30          30
                31          31
                32          32
                33          33
                34          34
                35          35
                36          36

----------------------------------------------------------------------------------------

 
 
 KPOINTS: pymatgen v2021.2.14 with grid density = 

Automatic generation of k-mesh.
Space group operators:
 irot       det(A)        alpha          n_x          n_y          n_z        tau_x        tau_y        tau_z
    1     1.000000     0.000000     1.000000     0.000000     0.000000     0.000000     0.000000     0.000000
 
 Subroutine IBZKPT returns following result:
 ===========================================
 
 Found     36 irreducible k-points:
 
 Following reciprocal coordinates:
            Coordinates               Weight
  0.000000  0.000000  0.000000      1.000000
  0.250000  0.000000  0.000000      2.000000
  0.500000 -0.000000 -0.000000      1.000000
  0.000000  0.250000  0.000000      2.000000
  0.250000  0.250000 -0.000000      2.000000
  0.500000  0.250000  0.000000      2.000000
 -0.250000  0.250000 -0.000000      2.000000
  0.000000  0.500000 -0.000000      1.000000
  0.250000  0.500000  0.000000      2.000000
  0.500000  0.500000  0.000000      1.000000
 -0.000000 -0.000000  0.250000      2.000000
  0.250000 -0.000000  0.250000      2.000000
  0.500000 -0.000000  0.250000      2.000000
 -0.250000 -0.000000  0.250000      2.000000
  0.000000  0.250000  0.250000      2.000000
  0.250000  0.250000  0.250000      2.000000
  0.500000  0.250000  0.250000      2.000000
 -0.250000  0.250000  0.250000      2.000000
  0.000000  0.500000  0.250000      2.000000
  0.250000  0.500000  0.250000      2.000000
  0.500000  0.500000  0.250000      2.000000
 -0.250000  0.500000  0.250000      2.000000
 -0.000000 -0.250000  0.250000      2.000000
  0.250000 -0.250000  0.250000      2.000000
  0.500000 -0.250000  0.250000      2.000000
 -0.250000 -0.250000  0.250000      2.000000
 -0.000000 -0.000000  0.500000      1.000000
  0.250000 -0.000000  0.500000      2.000000
  0.500000 -0.000000  0.500000      1.000000
 -0.000000  0.250000  0.500000      2.000000
  0.250000  0.250000  0.500000      2.000000
  0.500000  0.250000  0.500000      2.000000
 -0.250000  0.250000  0.500000      2.000000
  0.000000  0.500000  0.500000      1.000000
  0.250000  0.500000  0.500000      2.000000
  0.500000  0.500000  0.500000      1.000000
 
 Following cartesian coordinates:
            Coordinates               Weight
  0.000000  0.000000  0.000000      1.000000
 -0.019997  0.019369  0.020682      2.000000
 -0.039994  0.038738  0.041365      1.000000
  0.020021 -0.019338  0.020679      2.000000
  0.000024  0.000031  0.041362      2.000000
 -0.019973  0.019400  0.062044      2.000000
  0.040018 -0.038707 -0.000003      2.000000
  0.040041 -0.038676  0.041359      1.000000
  0.020044 -0.019307  0.062041      2.000000
  0.000047  0.000062  0.082724      1.000000
  0.029937  0.028944 -0.030982      2.000000
  0.009940  0.048313 -0.010300      2.000000
 -0.010057  0.067682  0.010382      2.000000
  0.049934  0.009575 -0.051665      2.000000
  0.049958  0.009606 -0.010303      2.000000
  0.029961  0.028975  0.010379      2.000000
  0.009964  0.048344  0.031062      2.000000
  0.069955 -0.009764 -0.030985      2.000000
  0.069978 -0.009733  0.010376      2.000000
  0.049981  0.009637  0.031059      2.000000
  0.029984  0.029006  0.051741      2.000000
  0.089975 -0.029102 -0.010306      2.000000
  0.009916  0.048282 -0.051662      2.000000
 -0.010081  0.067651 -0.030979      2.000000
 -0.030078  0.087020 -0.010297      2.000000
  0.029913  0.028913 -0.072344      2.000000
  0.059874  0.057888 -0.061965      1.000000
  0.039877  0.077257 -0.041282      2.000000
  0.019880  0.096626 -0.020600      1.000000
  0.079895  0.038549 -0.041285      2.000000
  0.059898  0.057919 -0.020603      2.000000
  0.039901  0.077288  0.000079      2.000000
  0.099892  0.019180 -0.061968      2.000000
  0.099915  0.019211 -0.020606      1.000000
  0.079918  0.038580  0.000076      2.000000
  0.059921  0.057949  0.020759      1.000000
 


--------------------------------------------------------------------------------------------------------




 Dimension of arrays:
   k-points           NKPTS =     36   k-points in BZ     NKDIM =     36   number of bands    NBANDS=    180
   number of dos      NEDOS =    301   number of ions     NIONS =     36
   non local maximal  LDIM  =      6   non local SUM 2l+1 LMDIM =     18
   total plane-waves  NPLWV = 235200
   max r-space proj   IRMAX =  10034   max aug-charges    IRDMAX=  28664
   dimension x,y,z NGX =    70 NGY =   70 NGZ =   48
   dimension x,y,z NGXF=   140 NGYF=  140 NGZF=   96
   support grid    NGXF=   140 NGYF=  140 NGZF=   96
   ions per type =               9   2   2   1   2   2  18
   NGX,Y,Z   is equivalent  to a cutoff of  13.16, 13.39, 13.29 a.u.
   NGXF,Y,Z  is equivalent  to a cutoff of  26.32, 26.78, 26.59 a.u.

 SYSTEM =  unknown system                          
 POSCAR =  Li9 Ti2 Fe2 Co1 Cu2 Ni2 O18             

 Startparameter for this run:
   NWRITE =      2    write-flag & timer
   PREC   = accura    normal or accurate (medium, high low for compatibility)
   ISTART =      0    job   : 0-new  1-cont  2-samecut
   ICHARG =      2    charge: 1-file 2-atom 10-const
   ISPIN  =      2    spin polarized calculation?
   LNONCOLLINEAR =      F non collinear calculations
   LSORBIT =      F    spin-orbit coupling
   INIWAV =      1    electr: 0-lowe 1-rand  2-diag
   LASPH  =      T    aspherical Exc in radial PAW
   METAGGA=      F    non-selfconsistent MetaGGA calc.

 Electronic Relaxation 1
   ENCUT  =  520.0 eV  38.22 Ry    6.18 a.u.  16.44 16.16 11.16*2*pi/ulx,y,z
   ENINI  =  520.0     initial cutoff
   ENAUG  =  758.2 eV  augmentation charge cutoff
   NELM   =    150;   NELMIN=  2; NELMDL=  0     # of ELM steps 
   EDIFF  = 0.1E-04   stopping-criterion for ELM
   LREAL  =      T    real-space projection
   NLSPLINE    = F    spline interpolate recip. space projectors
   LCOMPAT=      F    compatible to vasp.4.4
   GGA_COMPAT  = T    GGA compatible to vasp.4.4-vasp.4.6
   LMAXPAW     = -100 max onsite density
   LMAXMIX     =    4 max onsite mixed and CHGCAR
   VOSKOWN=      0    Vosko Wilk Nusair interpolation
   ROPT   =   -0.00025  -0.00025  -0.00025  -0.00025
   ROPT   =   -0.00025  -0.00025  -0.00025
 Ionic relaxation
   EDIFFG = 0.1E-03   stopping-criterion for IOM
   NSW    =      0    number of steps for IOM
   NBLOCK =      1;   KBLOCK =      1    inner block; outer block 
   IBRION =     -1    ionic relax: 0-MD 1-quasi-New 2-CG
   NFREE  =      0    steps in history (QN), initial steepest desc. (CG)
   ISIF   =      2    stress and relaxation
   IWAVPR =     10    prediction:  0-non 1-charg 2-wave 3-comb
   ISYM   =      0    0-nonsym 1-usesym 2-fastsym
   LCORR  =      T    Harris-Foulkes like correction to forces

   POTIM  = 0.5000    time-step for ionic-motion
   TEIN   =    0.0    initial temperature
   TEBEG  =    0.0;   TEEND  =   0.0 temperature during run
   SMASS  =  -3.00    Nose mass-parameter (am)
   estimated Nose-frequenzy (Omega)   =  0.10E-29 period in steps = 0.13E+47 mass=  -0.179E-26a.u.
   SCALEE = 1.0000    scale energy and forces
   NPACO  =    256;   APACO  = 16.0  distance and # of slots for P.C.
   PSTRESS=    0.0 pullay stress

  Mass of Ions in am
   POMASS =   7.01 47.88 55.85 58.93 63.55 58.69 16.00
  Ionic Valenz
   ZVAL   =   3.00 10.00 14.00  9.00 17.00 16.00  6.00
  Atomic Wigner-Seitz radii
   RWIGS  =  -1.00 -1.00 -1.00 -1.00 -1.00 -1.00 -1.00
  virtual crystal weights 
   VCA    =   1.00  1.00  1.00  1.00  1.00  1.00  1.00
   NELECT =     258.0000    total number of electrons
   NUPDOWN=      -1.0000    fix difference up-down

 DOS related values:
   EMIN   =  10.00;   EMAX   =-10.00  energy-range for DOS
   EFERMI =   0.00
   ISMEAR =     0;   SIGMA  =   0.05  broadening in eV -4-tet -1-fermi 0-gaus

 Electronic relaxation 2 (details)
   IALGO  =     68    algorithm
   LDIAG  =      T    sub-space diagonalisation (order eigenvalues)
   LSUBROT=      F    optimize rotation matrix (better conditioning)
   TURBO    =      0    0=normal 1=particle mesh
   IRESTART =      0    0=no restart 2=restart with 2 vectors
   NREBOOT  =      0    no. of reboots
   NMIN     =      0    reboot dimension
   EREF     =   0.00    reference energy to select bands
   IMIX   =      4    mixing-type and parameters
     AMIX     =   0.40;   BMIX     =  1.00
     AMIX_MAG =   1.60;   BMIX_MAG =  1.00
     AMIN     =   0.10
     WC   =   100.;   INIMIX=   1;  MIXPRE=   1;  MAXMIX= -45

 Intra band minimization:
   WEIMIN = 0.0000     energy-eigenvalue tresh-hold
   EBREAK =  0.14E-07  absolut break condition
   DEPER  =   0.30     relativ break condition  

   TIME   =   0.40     timestep for ELM

  volume/ion in A,a.u.               =       9.05        61.08
  Fermi-wavevector in a.u.,A,eV,Ry     =   1.514526  2.862039 31.208899  2.293789
  Thomas-Fermi vector in A             =   2.624172
 
 Write flags
   LWAVE        =      F    write WAVECAR
   LDOWNSAMPLE  =      F    k-point downsampling of WAVECAR
   LCHARG       =      T    write CHGCAR
   LVTOT        =      F    write LOCPOT, total local potential
   LVHAR        =      F    write LOCPOT, Hartree potential only
   LELF         =      F    write electronic localiz. function (ELF)
   LORBIT       =     11    0 simple, 1 ext, 2 COOP (PROOUT), +10 PAW based schemes


 Dipole corrections
   LMONO  =      F    monopole corrections only (constant potential shift)
   LDIPOL =      F    correct potential (dipole corrections)
   IDIPOL =      0    1-x, 2-y, 3-z, 4-all directions 
   EPSILON=  1.0000000 bulk dielectric constant

 LDA+U is selected, type is set to LDAUTYPE =  2
   angular momentum for each species LDAUL =     0    0    2    2    0    2    0
   U (eV)           for each species LDAUU =   0.0  0.0  5.3  3.3  0.0  6.2  0.0
   J (eV)           for each species LDAUJ =   0.0  0.0  0.0  0.0  0.0  0.0  0.0
 Exchange correlation treatment:
   GGA     =    --    GGA type
   LEXCH   =     8    internal setting for exchange type
   VOSKOWN=      0    Vosko Wilk Nusair interpolation
   LHFCALC =     F    Hartree Fock is set to
   LHFONE  =     F    Hartree Fock one center treatment
   AEXX    =    0.0000 exact exchange contribution

 Linear response parameters
   LEPSILON=     F    determine dielectric tensor
   LRPA    =     F    only Hartree local field effects (RPA)
   LNABLA  =     F    use nabla operator in PAW spheres
   LVEL    =     F    velocity operator in full k-point grid
   LINTERFAST=   F  fast interpolation
   KINTER  =     0    interpolate to denser k-point grid
   CSHIFT  =0.1000    complex shift for real part using Kramers Kronig
   OMEGAMAX=  -1.0    maximum frequency
   DEG_THRESHOLD= 0.2000000E-02 threshold for treating states as degnerate
   RTIME   =   -0.100 relaxation time in fs
  (WPLASMAI=    0.000 imaginary part of plasma frequency in eV, 0.658/RTIME)
   DFIELD  = 0.0000000 0.0000000 0.0000000 field for delta impulse in time
 
 Orbital magnetization related:
   ORBITALMAG=     F  switch on orbital magnetization
   LCHIMAG   =     F  perturbation theory with respect to B field
   DQ        =  0.001000  dq finite difference perturbation B field
   LLRAUG    =     F  two centre corrections for induced B field



--------------------------------------------------------------------------------------------------------


 Static calculation
 charge density and potential will be updated during run
 spin polarized calculation
 RMM-DIIS sequential band-by-band and
  variant of blocked Davidson during initial phase
 perform sub-space diagonalisation
    before iterative eigenvector-optimisation
 modified Broyden-mixing scheme, WC =      100.0
 initial mixing is a Kerker type mixing with AMIX =  0.4000 and BMIX =      1.0000
 Hartree-type preconditioning will be used
 using additional bands           51
 real space projection scheme for non local part
 use partial core corrections
 calculate Harris-corrections to forces 
   (improved forces if not selfconsistent)
 use gradient corrections 
 use of overlap-Matrix (Vanderbilt PP)
 Gauss-broadening in eV      SIGMA  =   0.05


--------------------------------------------------------------------------------------------------------


  energy-cutoff  :      520.00
  volume of cell :      325.85
      direct lattice vectors                 reciprocal lattice vectors
     0.003152000  6.461509000  6.039393000    -0.079987986  0.077476720  0.082729440
     6.249641000  0.002016000  6.040655000     0.080082585 -0.077352916  0.082717608
     4.173467000  4.314738000 -0.005615000     0.119748093  0.115775146 -0.123929606

  length of vectors
     8.844511083  8.691808185  6.002901160     0.138725918  0.138704351  0.207610302


 
 k-points in units of 2pi/SCALE and weight: pymatgen v2021.2.14 with grid density = 
   0.00000000  0.00000000  0.00000000       0.016
  -0.01999700  0.01936918  0.02068236       0.031
  -0.03999399  0.03873836  0.04136472       0.016
   0.02002065 -0.01933823  0.02067940       0.031
   0.00002365  0.00003095  0.04136176       0.031
  -0.01997335  0.01940013  0.06204412       0.031
   0.04001764 -0.03870741 -0.00000296       0.031
   0.04004129 -0.03867646  0.04135880       0.016
   0.02004430 -0.01930728  0.06204116       0.031
   0.00004730  0.00006190  0.08272352       0.016
   0.02993702  0.02894379 -0.03098240       0.031
   0.00994003  0.04831297 -0.01030004       0.031
  -0.01005697  0.06768215  0.01038232       0.031
   0.04993402  0.00957461 -0.05166476       0.031
   0.04995767  0.00960556 -0.01030300       0.031
   0.02996067  0.02897474  0.01037936       0.031
   0.00996368  0.04834392  0.03106172       0.031
   0.06995467 -0.00976362 -0.03098536       0.031
   0.06997832 -0.00973267  0.01037640       0.031
   0.04998132  0.00963651  0.03105876       0.031
   0.02998432  0.02900569  0.05174112       0.031
   0.08997531 -0.02910185 -0.01030596       0.031
   0.00991638  0.04828202 -0.05166180       0.031
  -0.01008062  0.06765120 -0.03097944       0.031
  -0.03007762  0.08702038 -0.01029708       0.031
   0.02991337  0.02891284 -0.07234416       0.031
   0.05987405  0.05788757 -0.06196480       0.016
   0.03987705  0.07725675 -0.04128244       0.031
   0.01988005  0.09662593 -0.02060008       0.016
   0.07989469  0.03854934 -0.04128540       0.031
   0.05989770  0.05791852 -0.02060304       0.031
   0.03990070  0.07728770  0.00007932       0.031
   0.09989169  0.01918016 -0.06196776       0.031
   0.09991534  0.01921111 -0.02060600       0.016
   0.07991834  0.03858029  0.00007636       0.031
   0.05992135  0.05794947  0.02075872       0.016
 
 k-points in reciprocal lattice and weights: pymatgen v2021.2.14 with grid density = 
   0.00000000  0.00000000  0.00000000       0.016
   0.25000000  0.00000000  0.00000000       0.031
   0.50000000 -0.00000000 -0.00000000       0.016
   0.00000000  0.25000000  0.00000000       0.031
   0.25000000  0.25000000 -0.00000000       0.031
   0.50000000  0.25000000  0.00000000       0.031
  -0.25000000  0.25000000 -0.00000000       0.031
   0.00000000  0.50000000 -0.00000000       0.016
   0.25000000  0.50000000  0.00000000       0.031
   0.50000000  0.50000000  0.00000000       0.016
  -0.00000000 -0.00000000  0.25000000       0.031
   0.25000000 -0.00000000  0.25000000       0.031
   0.50000000 -0.00000000  0.25000000       0.031
  -0.25000000 -0.00000000  0.25000000       0.031
   0.00000000  0.25000000  0.25000000       0.031
   0.25000000  0.25000000  0.25000000       0.031
   0.50000000  0.25000000  0.25000000       0.031
  -0.25000000  0.25000000  0.25000000       0.031
   0.00000000  0.50000000  0.25000000       0.031
   0.25000000  0.50000000  0.25000000       0.031
   0.50000000  0.50000000  0.25000000       0.031
  -0.25000000  0.50000000  0.25000000       0.031
  -0.00000000 -0.25000000  0.25000000       0.031
   0.25000000 -0.25000000  0.25000000       0.031
   0.50000000 -0.25000000  0.25000000       0.031
  -0.25000000 -0.25000000  0.25000000       0.031
  -0.00000000 -0.00000000  0.50000000       0.016
   0.25000000 -0.00000000  0.50000000       0.031
   0.50000000 -0.00000000  0.50000000       0.016
  -0.00000000  0.25000000  0.50000000       0.031
   0.25000000  0.25000000  0.50000000       0.031
   0.50000000  0.25000000  0.50000000       0.031
  -0.25000000  0.25000000  0.50000000       0.031
   0.00000000  0.50000000  0.50000000       0.016
   0.25000000  0.50000000  0.50000000       0.031
   0.50000000  0.50000000  0.50000000       0.016
 
 position of ions in fractional coordinates (direct lattice) 
   0.00020400  0.02128800  0.97026800
   0.99421100  0.02617800  0.49230900
   0.98879600  0.31833000  0.03066600
   0.33272600  0.98422700  0.02624300
   0.33009400  0.99066700  0.49343500
   0.66479300  0.01268400  0.98982400
   0.68393700  0.32965200  0.97997700
   0.69254500  0.32497000  0.50748100
   0.65273700  0.66541900  0.50132700
   0.34215700  0.31276500  0.52401400
   0.67666200  0.00022900  0.48009500
   0.98640700  0.67821000  0.99744500
   0.99562200  0.67006300  0.49690400
   0.33640600  0.66904400  0.99180200
   0.33392300  0.32717800  0.01078200
   0.33521000  0.67228100  0.49447600
   0.99479000  0.32894000  0.50538200
   0.66019800  0.66112000  0.00881200
   0.49477200  0.81853100  0.25887500
   0.83995900  0.17431800  0.74025500
   0.16381700  0.18303600  0.25876900
   0.16810900  0.18805400  0.73379800
   0.16333700  0.50569600  0.24980600
   0.16879400  0.52094500  0.71576400
   0.17934200  0.81094300  0.24070900
   0.17612000  0.81123700  0.78252800
   0.50579800  0.15689800  0.28995000
   0.49613100  0.17319600  0.73141100
   0.47650300  0.50841000  0.23062800
   0.47341100  0.50654400  0.77413500
   0.50929500  0.82217100  0.75967600
   0.82488500  0.15084400  0.27417500
   0.83953100  0.51040400  0.22927000
   0.84792400  0.49866900  0.72921800
   0.83446500  0.83449400  0.25872300
   0.83638900  0.83236500  0.74106900
 
 position of ions in cartesian coordinates  (Angst):
   4.18242448  4.18781327  0.12437744
   2.22137222  8.54834045  6.15979891
   2.12054844  6.52207176  7.89447716
   6.26163846  2.26512791  7.95469147
   8.25168825  4.26394528  7.97507432
   4.21236367  8.56642275  4.08600800
   6.15226409  8.64827366  6.11637576
   4.15108394  6.66518844  6.14273357
   6.25295898  6.38210214  7.95888693
   4.14270258  4.47246419  3.95278371
   2.00722465  6.44374220  4.08531532
   8.40448197 10.67875882 10.04853150
   6.26460384  8.57858193 10.05778183
   8.32159808  6.45440497  6.06758306
   2.09079589  2.20482757  3.99300111
   6.26625075  4.30085214  6.08270603
   4.16808759  8.60909860  7.99210310
   4.17062019  4.30522961  7.98074353
   6.19749069  4.31560169  7.93113235
   4.18150228  8.62176044  6.12168087
   2.22438952  2.17539446  2.09355958
   4.23828161  4.25276305  2.14712538
   4.20349039  2.13427042  4.03978874
   6.24346870  4.18004831  4.16224331
   6.07325898  2.19905108  5.98039213
   8.33634993  4.51603972  5.95966684
   2.19224721  4.51959292  4.00085152
   4.13649630  6.36195092  4.03844050
   4.14140027  4.07505277  5.94762332
   6.39803722  6.40016033  5.91462586
   8.31036161  6.57027463  8.03801844
   2.08958120  6.51329924  5.89146177
   4.14933875  6.41490607  8.15214477
   6.16254214  8.62625849  8.12913910
   6.29769005  6.50990741 10.07909970
   8.29744575  8.60353167 10.07515057
 


--------------------------------------------------------------------------------------------------------


 k-point   1 :   0.0000 0.0000 0.0000  plane waves:    8757
 k-point   2 :   0.2500 0.0000 0.0000  plane waves:    8764
 k-point   3 :   0.5000-0.0000-0.0000  plane waves:    8760
 k-point   4 :   0.0000 0.2500 0.0000  plane waves:    8771
 k-point   5 :   0.2500 0.2500-0.0000  plane waves:    8778
 k-point   6 :   0.5000 0.2500 0.0000  plane waves:    8769
 k-point   7 :  -0.2500 0.2500-0.0000  plane waves:    8755
 k-point   8 :   0.0000 0.5000-0.0000  plane waves:    8776
 k-point   9 :   0.2500 0.5000 0.0000  plane waves:    8775
 k-point  10 :   0.5000 0.5000 0.0000  plane waves:    8754
 k-point  11 :  -0.0000-0.0000 0.2500  plane waves:    8764
 k-point  12 :   0.2500-0.0000 0.2500  plane waves:    8780
 k-point  13 :   0.5000-0.0000 0.2500  plane waves:    8767
 k-point  14 :  -0.2500-0.0000 0.2500  plane waves:    8789
 k-point  15 :   0.0000 0.2500 0.2500  plane waves:    8778
 k-point  16 :   0.2500 0.2500 0.2500  plane waves:    8784
 k-point  17 :   0.5000 0.2500 0.2500  plane waves:    8771
 k-point  18 :  -0.2500 0.2500 0.2500  plane waves:    8789
 k-point  19 :   0.0000 0.5000 0.2500  plane waves:    8781
 k-point  20 :   0.2500 0.5000 0.2500  plane waves:    8770
 k-point  21 :   0.5000 0.5000 0.2500  plane waves:    8762
 k-point  22 :  -0.2500 0.5000 0.2500  plane waves:    8777
 k-point  23 :  -0.0000-0.2500 0.2500  plane waves:    8772
 k-point  24 :   0.2500-0.2500 0.2500  plane waves:    8772
 k-point  25 :   0.5000-0.2500 0.2500  plane waves:    8761
 k-point  26 :  -0.2500-0.2500 0.2500  plane waves:    8770
 k-point  27 :  -0.0000-0.0000 0.5000  plane waves:    8780
 k-point  28 :   0.2500-0.0000 0.5000  plane waves:    8779
 k-point  29 :   0.5000-0.0000 0.5000  plane waves:    8760
 k-point  30 :  -0.0000 0.2500 0.5000  plane waves:    8778
 k-point  31 :   0.2500 0.2500 0.5000  plane waves:    8786
 k-point  32 :   0.5000 0.2500 0.5000  plane waves:    8767
 k-point  33 :  -0.2500 0.2500 0.5000  plane waves:    8773
 k-point  34 :   0.0000 0.5000 0.5000  plane waves:    8790
 k-point  35 :   0.2500 0.5000 0.5000  plane waves:    8777
 k-point  36 :   0.5000 0.5000 0.5000  plane waves:    8792

 maximum and minimum number of plane-waves per node :      1485     1438

 maximum number of plane-waves:      8792
 maximum index in each direction: 
   IXMAX=   16   IYMAX=   16   IZMAX=   11
   IXMIN=  -16   IYMIN=  -16   IZMIN=  -11


 real space projection operators:
  total allocation   :      16839.20 KBytes
  max/ min on nodes  :       2886.45       2650.16


 parallel 3D FFT for wavefunctions:
    minimum data exchange during FFTs selected (reduces bandwidth)
 parallel 3D FFT for charge:
    minimum data exchange during FFTs selected (reduces bandwidth)


 total amount of memory used by VASP MPI-rank0    75281. kBytes
=======================================================================

   base      :      30000. kBytes
   nonlr-proj:       9698. kBytes
   fftplans  :       2112. kBytes
   grid      :       6536. kBytes
   one-center:        186. kBytes
   wavefun   :      26749. kBytes
 
     INWAV:  cpu time    0.0000: real time    0.0000
 Broyden mixing: mesh for mixing (old mesh)
   NGX = 33   NGY = 33   NGZ = 23
  (NGX  =140   NGY  =140   NGZ  = 96)
  gives a total of  25047 points

 initial charge density was supplied:
 charge density of overlapping atoms calculated
 number of electron     258.0000000 magnetization      39.2000000
 keeping initial charge density in first step


--------------------------------------------------------------------------------------------------------


 Maximum index for non-local projection operator         1650
 Maximum index for augmentation-charges          839 (set IRDMAX)


--------------------------------------------------------------------------------------------------------


 First call to EWALD:  gamma=   0.258
 Maximum number of real-space cells 3x 3x 4
 Maximum number of reciprocal cells 3x 3x 2

    FEWALD:  cpu time    0.0020: real time    0.0020


--------------------------------------- Iteration      1(   1)  ---------------------------------------


    POTLOK:  cpu time    0.0542: real time    0.0758
    SETDIJ:  cpu time    0.5247: real time    0.5247
atom =   1  type =  1  l = 0
 
 onsite density matrix
 
spin component  1
 
  1.2239
 
spin component  2
 
  0.8159
 
 occupancies and eigenvectors
 
  o =  0.8159  v =  0.0000  1.0000      0.0000  0.0000
  o =  1.2239  v =  1.0000  0.0000      0.0000  0.0000
atom =   2  type =  1  l = 0
 
 onsite density matrix
 
spin component  1
 
  1.2239
 
spin component  2
 
  0.8159
 
 occupancies and eigenvectors
 
  o =  0.8159  v =  0.0000  1.0000      0.0000  0.0000
  o =  1.2239  v =  1.0000  0.0000      0.0000  0.0000
atom =   3  type =  1  l = 0
 
 onsite density matrix
 
spin component  1
 
  1.2239
 
spin component  2
 
  0.8159
 
 occupancies and eigenvectors
 
  o =  0.8159  v =  0.0000  1.0000      0.0000  0.0000
  o =  1.2239  v =  1.0000  0.0000      0.0000  0.0000
atom =   4  type =  1  l = 0
 
 onsite density matrix
 
spin component  1
 
  1.2239
 
spin component  2
 
  0.8159
 
 occupancies and eigenvectors
 
  o =  0.8159  v =  0.0000  1.0000      0.0000  0.0000
  o =  1.2239  v =  1.0000  0.0000      0.0000  0.0000
atom =   5  type =  1  l = 0
 
 onsite density matrix
 
spin component  1
 
  1.2239
 
spin component  2
 
  0.8159
 
 occupancies and eigenvectors
 
  o =  0.8159  v =  0.0000  1.0000      0.0000  0.0000
  o =  1.2239  v =  1.0000  0.0000      0.0000  0.0000
atom =   6  type =  1  l = 0
 
 onsite density matrix
 
spin component  1
 
  1.2239
 
spin component  2
 
  0.8159
 
 occupancies and eigenvectors
 
  o =  0.8159  v =  0.0000  1.0000      0.0000  0.0000
  o =  1.2239  v =  1.0000  0.0000      0.0000  0.0000
atom =   7  type =  1  l = 0
 
 onsite density matrix
 
spin component  1
 
  1.2239
 
spin component  2
 
  0.8159
 
 occupancies and eigenvectors
 
  o =  0.8159  v =  0.0000  1.0000      0.0000  0.0000
  o =  1.2239  v =  1.0000  0.0000      0.0000  0.0000
atom =   8  type =  1  l = 0
 
 onsite density matrix
 
spin component  1
 
  1.2239
 
spin component  2
 
  0.8159
 
 occupancies and eigenvectors
 
  o =  0.8159  v =  0.0000  1.0000      0.0000  0.0000
  o =  1.2239  v =  1.0000  0.0000      0.0000  0.0000
atom =   9  type =  1  l = 0
 
 onsite density matrix
 
spin component  1
 
  1.2239
 
spin component  2
 
  0.8159
 
 occupancies and eigenvectors
 
  o =  0.8159  v =  0.0000  1.0000      0.0000  0.0000
  o =  1.2239  v =  1.0000  0.0000      0.0000  0.0000
atom =  10  type =  2  l = 0
 
 onsite density matrix
 
spin component  1
 
  0.1088
 
spin component  2
 
  0.0965
 
 occupancies and eigenvectors
 
  o =  0.0965  v =  0.0000  1.0000      0.0000  0.0000
  o =  0.1088  v =  1.0000  0.0000      0.0000  0.0000
atom =  11  type =  2  l = 0
 
 onsite density matrix
 
spin component  1
 
  0.1088
 
spin component  2
 
  0.0965
 
 occupancies and eigenvectors
 
  o =  0.0965  v =  0.0000  1.0000      0.0000  0.0000
  o =  0.1088  v =  1.0000  0.0000      0.0000  0.0000
atom =  12  type =  3  l = 2
 
 onsite density matrix
 
spin component  1
 
  0.8527  0.0000  0.0000  0.0000  0.0000
  0.0000  0.8527  0.0000  0.0000  0.0000
  0.0000  0.0000  0.8527  0.0000  0.0000
  0.0000  0.0000  0.0000  0.8527  0.0000
  0.0000  0.0000  0.0000  0.0000  0.8527
 
spin component  2
 
  0.4039  0.0000  0.0000  0.0000  0.0000
  0.0000  0.4039  0.0000  0.0000  0.0000
  0.0000  0.0000  0.4039  0.0000  0.0000
  0.0000  0.0000  0.0000  0.4039  0.0000
  0.0000  0.0000  0.0000  0.0000  0.4039
 
 occupancies and eigenvectors
 
  o =  0.4039  v =  0.0000  0.0000  0.0000  0.0000  0.0000  1.0000  0.0000  0.0000  0.0000  0.0000      0.0000  0.0000  0.0000  0.0000  0.0000  0.0000  0.0000  0.0000  0.0000  0.0000
  o =  0.4039  v =  0.0000  0.0000  0.0000  0.0000  0.0000  0.0000  1.0000  0.0000  0.0000  0.0000      0.0000  0.0000  0.0000  0.0000  0.0000  0.0000  0.0000  0.0000  0.0000  0.0000
  o =  0.4039  v =  0.0000  0.0000  0.0000  0.0000  0.0000  0.0000  0.0000  1.0000  0.0000  0.0000      0.0000  0.0000  0.0000  0.0000  0.0000  0.0000  0.0000  0.0000  0.0000  0.0000
  o =  0.4039  v =  0.0000  0.0000  0.0000  0.0000  0.0000  0.0000  0.0000  0.0000  0.0000 -1.0000      0.0000  0.0000  0.0000  0.0000  0.0000  0.0000  0.0000  0.0000  0.0000  0.0000
  o =  0.4039  v =  0.0000  0.0000  0.0000  0.0000  0.0000  0.0000  0.0000  0.0000 -1.0000  0.0000      0.0000  0.0000  0.0000  0.0000  0.0000  0.0000  0.0000  0.0000  0.0000  0.0000
  o =  0.8527  v =  1.0000  0.0000  0.0000  0.0000  0.0000  0.0000  0.0000  0.0000  0.0000  0.0000      0.0000  0.0000  0.0000  0.0000  0.0000  0.0000  0.0000  0.0000  0.0000  0.0000
  o =  0.8527  v =  0.0000  1.0000  0.0000  0.0000  0.0000  0.0000  0.0000  0.0000  0.0000  0.0000      0.0000  0.0000  0.0000  0.0000  0.0000  0.0000  0.0000  0.0000  0.0000  0.0000
  o =  0.8527  v =  0.0000  0.0000  1.0000  0.0000  0.0000  0.0000  0.0000  0.0000  0.0000  0.0000      0.0000  0.0000  0.0000  0.0000  0.0000  0.0000  0.0000  0.0000  0.0000  0.0000
  o =  0.8527  v =  0.0000  0.0000  0.0000  0.0000 -1.0000  0.0000  0.0000  0.0000  0.0000  0.0000      0.0000  0.0000  0.0000  0.0000  0.0000  0.0000  0.0000  0.0000  0.0000  0.0000
  o =  0.8527  v =  0.0000  0.0000  0.0000 -1.0000  0.0000  0.0000  0.0000  0.0000  0.0000  0.0000      0.0000  0.0000  0.0000  0.0000  0.0000  0.0000  0.0000  0.0000  0.0000  0.0000
atom =  13  type =  3  l = 2
 
 onsite density matrix
 
spin component  1
 
  0.8527  0.0000  0.0000  0.0000  0.0000
  0.0000  0.8527  0.0000  0.0000  0.0000
  0.0000  0.0000  0.8527  0.0000  0.0000
  0.0000  0.0000  0.0000  0.8527  0.0000
  0.0000  0.0000  0.0000  0.0000  0.8527
 
spin component  2
 
  0.4039  0.0000  0.0000  0.0000  0.0000
  0.0000  0.4039  0.0000  0.0000  0.0000
  0.0000  0.0000  0.4039  0.0000  0.0000
  0.0000  0.0000  0.0000  0.4039  0.0000
  0.0000  0.0000  0.0000  0.0000  0.4039
 
 occupancies and eigenvectors
 
  o =  0.4039  v =  0.0000  0.0000  0.0000  0.0000  0.0000  1.0000  0.0000  0.0000  0.0000  0.0000      0.0000  0.0000  0.0000  0.0000  0.0000  0.0000  0.0000  0.0000  0.0000  0.0000
  o =  0.4039  v =  0.0000  0.0000  0.0000  0.0000  0.0000  0.0000  1.0000  0.0000  0.0000  0.0000      0.0000  0.0000  0.0000  0.0000  0.0000  0.0000  0.0000  0.0000  0.0000  0.0000
  o =  0.4039  v =  0.0000  0.0000  0.0000  0.0000  0.0000  0.0000  0.0000  1.0000  0.0000  0.0000      0.0000  0.0000  0.0000  0.0000  0.0000  0.0000  0.0000  0.0000  0.0000  0.0000
  o =  0.4039  v =  0.0000  0.0000  0.0000  0.0000  0.0000  0.0000  0.0000  0.0000  0.0000 -1.0000      0.0000  0.0000  0.0000  0.0000  0.0000  0.0000  0.0000  0.0000  0.0000  0.0000
  o =  0.4039  v =  0.0000  0.0000  0.0000  0.0000  0.0000  0.0000  0.0000  0.0000 -1.0000  0.0000      0.0000  0.0000  0.0000  0.0000  0.0000  0.0000  0.0000  0.0000  0.0000  0.0000
  o =  0.8527  v =  1.0000  0.0000  0.0000  0.0000  0.0000  0.0000  0.0000  0.0000  0.0000  0.0000      0.0000  0.0000  0.0000  0.0000  0.0000  0.0000  0.0000  0.0000  0.0000  0.0000
  o =  0.8527  v =  0.0000  1.0000  0.0000  0.0000  0.0000  0.0000  0.0000  0.0000  0.0000  0.0000      0.0000  0.0000  0.0000  0.0000  0.0000  0.0000  0.0000  0.0000  0.0000  0.0000
  o =  0.8527  v =  0.0000  0.0000  1.0000  0.0000  0.0000  0.0000  0.0000  0.0000  0.0000  0.0000      0.0000  0.0000  0.0000  0.0000  0.0000  0.0000  0.0000  0.0000  0.0000  0.0000
  o =  0.8527  v =  0.0000  0.0000  0.0000  0.0000 -1.0000  0.0000  0.0000  0.0000  0.0000  0.0000      0.0000  0.0000  0.0000  0.0000  0.0000  0.0000  0.0000  0.0000  0.0000  0.0000
  o =  0.8527  v =  0.0000  0.0000  0.0000 -1.0000  0.0000  0.0000  0.0000  0.0000  0.0000  0.0000      0.0000  0.0000  0.0000  0.0000  0.0000  0.0000  0.0000  0.0000  0.0000  0.0000
atom =  14  type =  4  l = 2
 
 onsite density matrix
 
spin component  1
 
  0.7913  0.0000  0.0000  0.0000  0.0000
  0.0000  0.7913  0.0000  0.0000  0.0000
  0.0000  0.0000  0.7913  0.0000 -0.0000
  0.0000  0.0000  0.0000  0.7913  0.0000
  0.0000  0.0000 -0.0000  0.0000  0.7913
 
spin component  2
 
  0.6923  0.0000  0.0000  0.0000  0.0000
  0.0000  0.6923  0.0000  0.0000  0.0000
  0.0000  0.0000  0.6923  0.0000 -0.0000
  0.0000  0.0000  0.0000  0.6923  0.0000
  0.0000  0.0000 -0.0000  0.0000  0.6923
 
 occupancies and eigenvectors
 
  o =  0.6923  v =  0.0000  0.0000  0.0000  0.0000  0.0000  1.0000  0.0000  0.0000  0.0000  0.0000      0.0000  0.0000  0.0000  0.0000  0.0000  0.0000  0.0000  0.0000  0.0000  0.0000
  o =  0.6923  v =  0.0000  0.0000  0.0000  0.0000  0.0000  0.0000  1.0000  0.0000  0.0000  0.0000      0.0000  0.0000  0.0000  0.0000  0.0000  0.0000  0.0000  0.0000  0.0000  0.0000
  o =  0.6923  v =  0.0000  0.0000  0.0000  0.0000  0.0000  0.0000  0.0000  1.0000  0.0000  0.0000      0.0000  0.0000  0.0000  0.0000  0.0000  0.0000  0.0000  0.0000  0.0000  0.0000
  o =  0.6923  v =  0.0000  0.0000  0.0000  0.0000  0.0000  0.0000  0.0000  0.0000  0.0000  1.0000      0.0000  0.0000  0.0000  0.0000  0.0000  0.0000  0.0000  0.0000  0.0000  0.0000
[...]
 -0.002   0.004   0.000   0.026   0.000
 -0.001   0.002  -0.000   0.000   0.024
 total augmentation occupancy for first ion, spin component:           2
  0.000   0.000   0.000   0.000   0.000
  0.000   0.001   0.000  -0.000   0.001
  0.000   0.000   0.000  -0.000   0.000
  0.000  -0.000  -0.000  -0.000   0.000
  0.000   0.001   0.000   0.000  -0.000


------------------------ aborting loop because EDIFF is reached ----------------------------------------


 


 total charge     
 
# of ion       s       p       d       tot
------------------------------------------
    1        2.019   0.055   0.000   2.074
    2        2.021   0.057   0.000   2.078
    3        2.020   0.055   0.000   2.074
    4        2.018   0.053   0.000   2.071
    5        2.018   0.053   0.000   2.071
    6        2.013   0.044   0.000   2.057
    7        2.020   0.056   0.000   2.076
    8        2.020   0.057   0.000   2.077
    9        2.020   0.056   0.000   2.077
   10        0.323   6.445   2.044   8.813
   11        0.313   6.436   2.016   8.766
   12        0.304   6.359   5.624  12.287
   13        0.317   6.398   5.674  12.388
   14        0.393   0.592   7.236   8.220
   15        0.232   6.181   8.822  15.235
   16        0.254   6.227   8.728  15.208
   17        0.251   6.235   7.868  14.353
   18        0.222   6.195   7.898  14.315
   19        1.556   3.442   0.000   4.998
   20        1.551   3.472   0.000   5.024
   21        1.555   3.439   0.000   4.994
   22        1.569   3.464   0.000   5.033
   23        1.566   3.449   0.000   5.015
   24        1.567   3.451   0.000   5.018
   25        1.565   3.428   0.000   4.994
   26        1.563   3.439   0.000   5.001
   27        1.568   3.482   0.000   5.049
   28        1.564   3.466   0.000   5.030
   29        1.563   3.453   0.000   5.016
   30        1.564   3.405   0.000   4.969
   31        1.553   3.456   0.000   5.010
   32        1.567   3.474   0.000   5.042
   33        1.554   3.470   0.000   5.024
   34        1.559   3.448   0.000   5.007
   35        1.560   3.485   0.000   5.045
   36        1.557   3.478   0.000   5.035
--------------------------------------------------
tot         48.880 113.754  55.909 218.543
 


 magnetization (x)
 
# of ion       s       p       d       tot
------------------------------------------
    1        0.000   0.000   0.000   0.000
    2       -0.000  -0.000   0.000  -0.000
    3        0.000   0.001   0.000   0.001
    4        0.001   0.001   0.000   0.001
    5        0.001   0.002   0.000   0.003
    6        0.000   0.000   0.000   0.001
    7        0.001   0.001   0.000   0.002
    8        0.001   0.001   0.000   0.001
    9       -0.000  -0.000   0.000  -0.001
   10        0.003   0.007   0.029   0.038
   11        0.003   0.002   0.018   0.023
   12        0.032   0.030   4.204   4.265
   13        0.024   0.028   4.150   4.202
   14        0.003   0.004   0.038   0.045
   15       -0.019   0.003  -0.506  -0.522
   16       -0.001   0.000  -0.066  -0.067
   17        0.015   0.008   1.466   1.489
   18        0.010   0.008   1.732   1.750
   19        0.003   0.011   0.000   0.014
   20        0.001  -0.120   0.000  -0.119
   21       -0.001  -0.168   0.000  -0.169
   22        0.004   0.029   0.000   0.033
   23        0.008   0.046   0.000   0.054
   24        0.009   0.105   0.000   0.114
   25        0.007   0.155   0.000   0.162
   26        0.001  -0.020   0.000  -0.019
   27       -0.000  -0.005   0.000  -0.005
   28       -0.003  -0.025   0.000  -0.029
   29        0.001  -0.061   0.000  -0.060
   30        0.000   0.009   0.000   0.009
   31        0.003   0.019   0.000   0.022
   32        0.000   0.000   0.000   0.001
   33        0.011   0.180   0.000   0.192
   34        0.009   0.042   0.000   0.051
   35        0.010   0.127   0.000   0.137
   36        0.013   0.171   0.000   0.184
--------------------------------------------------
tot          0.148   0.591  11.065  11.804
 
    CHARGE:  cpu time    0.4191: real time    0.4191
    FORLOC:  cpu time    0.0055: real time    0.0055
    FORNL :  cpu time    3.6024: real time    3.6026
    STRESS:  cpu time   10.6291: real time   10.6296
    FORCOR:  cpu time    0.0502: real time    0.0502
    FORHAR:  cpu time    0.0102: real time    0.0102
    MIXING:  cpu time    0.0024: real time    0.0024
    OFIELD:  cpu time    0.0000: real time    0.0000

  FORCE on cell =-STRESS in cart. coord.  units (eV):
  Direction    XX          YY          ZZ          XY          YZ          ZX
  --------------------------------------------------------------------------------------
  Alpha Z  1071.80364  1071.80364  1071.80364
  Ewald   -6432.01757 -7009.68945 -6052.75673  1102.73791   715.23841 -1073.85525
  Hartree  3837.67013  3479.66970  3923.42054   966.42988   601.33038  -941.06116
  E(xc)   -1490.98638 -1491.81567 -1489.40651     0.13978     0.18510    -0.10257
  Local   -1662.49002  -751.61650 -2105.43367 -2064.31603 -1313.82440  2012.65444
  n-local -1016.94797 -1020.56543 -1006.19694     0.32497     1.07113    -0.42156
  augment  1568.20602  1576.64572  1559.32492    -1.85973    -0.58789     0.64479
  Kinetic  4125.76216  4146.16798  4100.70336    -3.67680    -3.69048     2.02681
  Fock        0.00000     0.00000     0.00000     0.00000     0.00000     0.00000
  -------------------------------------------------------------------------------------
  Total       1.00001     0.59999     1.45862    -0.22002    -0.27775    -0.11450
  in kB       4.91699     2.95014     7.17199    -1.08183    -1.36569    -0.56298
  external pressure =        5.01 kB  Pullay stress =        0.00 kB


 VOLUME and BASIS-vectors are now :
 -----------------------------------------------------------------------------
  energy-cutoff  :      520.00
  volume of cell :      325.85
      direct lattice vectors                 reciprocal lattice vectors
     0.003152000  6.461509000  6.039393000    -0.079987986  0.077476720  0.082729440
     6.249641000  0.002016000  6.040655000     0.080082585 -0.077352916  0.082717608
     4.173467000  4.314738000 -0.005615000     0.119748093  0.115775146 -0.123929606

  length of vectors
     8.844511083  8.691808185  6.002901160     0.138725918  0.138704351  0.207610302


 FORCES acting on ions
    electron-ion (+dipol)            ewald-force                    non-local-force                 convergence-correction
 -----------------------------------------------------------------------------------------------
   -.338E+02 0.158E+01 -.202E+02   0.339E+02 -.287E+01 0.205E+02   -.137E+00 0.125E+01 -.261E+00   -.366E-02 0.414E-02 0.173E-02
   0.327E+01 0.274E+02 -.772E+01   -.122E+01 -.283E+02 0.831E+01   -.201E+01 0.891E+00 -.631E+00   -.480E-02 0.431E-02 0.140E-02
   0.465E+02 -.227E+02 0.103E+03   -.461E+02 0.229E+02 -.104E+03   -.332E+00 -.270E+00 0.698E+00   -.810E-03 0.114E-02 0.410E-02
   -.376E+02 0.586E+02 -.213E+02   0.370E+02 -.576E+02 0.206E+02   0.560E+00 -.104E+01 0.711E+00   0.139E-02 0.132E-02 -.511E-02
   -.130E+02 -.151E+02 -.139E+02   0.125E+02 0.145E+02 0.136E+02   0.571E+00 0.586E+00 0.279E+00   -.197E-02 -.610E-03 -.413E-02
   -.243E+02 0.518E+01 -.261E+02   0.242E+02 -.512E+01 0.270E+02   0.118E+00 -.495E-01 -.861E+00   0.111E-02 -.920E-03 -.232E-02
   0.340E+02 -.436E+02 0.326E+02   -.355E+02 0.437E+02 -.320E+02   0.151E+01 -.111E+00 -.579E+00   0.233E-02 -.530E-02 0.211E-03
   0.393E+02 -.210E+02 0.321E+02   -.399E+02 0.231E+02 -.316E+02   0.616E+00 -.208E+01 -.467E+00   0.579E-02 -.321E-02 0.486E-03
   -.198E+02 0.802E+01 -.717E+01   0.200E+02 -.853E+01 0.706E+01   -.182E+00 0.564E+00 0.111E+00   -.305E-03 -.233E-02 -.579E-02
   0.176E+03 -.190E+03 0.891E+02   -.176E+03 0.190E+03 -.895E+02   0.525E+00 -.372E+00 -.390E-01   0.153E-01 -.866E-02 0.635E-02
   -.592E+02 0.887E+02 -.686E+02   0.586E+02 -.893E+02 0.691E+02   0.589E+00 0.619E+00 -.180E+00   -.490E-03 -.170E-02 -.399E-02
   -.314E+03 0.246E+03 -.867E+02   0.314E+03 -.246E+03 0.840E+02   -.728E+00 0.371E+00 0.255E+01   -.210E-01 0.158E-01 0.153E-01
   -.193E+03 0.229E+03 -.771E+02   0.193E+03 -.228E+03 0.757E+02   0.332E+00 -.597E+00 0.121E+01   -.162E-01 0.211E-01 0.229E-01
   -.296E+02 0.804E+02 -.244E+03   0.294E+02 -.807E+02 0.246E+03   0.167E+00 0.303E+00 -.227E+01   -.252E-02 -.347E-02 -.885E-02
   0.523E+03 -.415E+03 0.138E+03   -.522E+03 0.414E+03 -.140E+03   -.120E+01 0.706E+00 0.195E+01   0.128E-01 -.209E-01 0.274E-01
   -.147E+03 0.333E+02 -.387E+03   0.148E+03 -.327E+02 0.391E+03   -.144E+01 -.682E+00 -.480E+01   0.530E-02 0.459E-02 -.175E-01
   0.431E+02 -.944E+02 0.557E+03   -.449E+02 0.954E+02 -.566E+03   0.192E+01 -.102E+01 0.902E+01   -.250E-02 0.157E-02 0.237E-01
   0.385E+02 -.203E+02 0.503E+01   -.341E+02 0.185E+02 -.631E+01   -.464E+01 0.205E+01 0.135E+01   0.133E-01 0.275E-02 -.225E-01
   -.229E+03 0.223E+02 -.345E+03   0.234E+03 -.215E+02 0.358E+03   -.471E+01 -.694E+00 -.126E+02   0.717E-02 -.666E-03 -.266E-01
   0.480E+01 -.225E+02 0.280E+03   -.476E+01 0.235E+02 -.291E+03   -.320E-01 -.988E+00 0.100E+02   0.825E-03 -.873E-03 0.305E-02
   0.266E+03 -.227E+02 0.315E+03   -.274E+03 0.225E+02 -.323E+03   0.767E+01 0.181E+00 0.846E+01   -.305E-02 0.156E-02 0.563E-02
   0.174E+02 -.218E+03 0.250E+03   -.172E+02 0.221E+03 -.262E+03   -.211E+00 -.293E+01 0.124E+02   -.268E-03 0.678E-03 0.297E-02
   -.823E+01 -.623E+02 -.410E+02   0.614E+01 0.626E+02 0.398E+02   0.211E+01 -.306E+00 0.147E+01   -.358E-02 0.673E-03 0.108E-01
   0.653E+02 -.336E+02 0.239E+03   -.638E+02 0.377E+02 -.247E+03   -.149E+01 -.422E+01 0.834E+01   -.826E-03 0.415E-02 0.220E-01
   -.187E+03 0.276E+03 -.271E+03   0.195E+03 -.281E+03 0.279E+03   -.823E+01 0.500E+01 -.747E+01   -.495E-02 0.182E-01 -.306E-05
   -.269E+03 0.154E+03 -.268E+03   0.274E+03 -.161E+03 0.276E+03   -.486E+01 0.707E+01 -.769E+01   -.184E-01 0.763E-02 0.285E-03
   0.187E+03 -.633E+02 0.450E+00   -.196E+03 0.552E+02 -.537E+00   0.852E+01 0.830E+01 0.379E-01   0.461E-02 -.133E-01 -.186E-02
   0.131E+03 -.187E+03 0.246E+01   -.130E+03 0.198E+03 -.175E+01   -.161E+01 -.111E+02 -.772E+00   0.143E-01 -.532E-02 -.165E-03
   0.248E+03 -.147E+03 0.402E+02   -.252E+03 0.153E+03 -.388E+02   0.425E+01 -.645E+01 -.151E+01   0.173E-01 -.863E-02 -.656E-02
   0.166E+03 -.233E+03 -.240E+03   -.174E+03 0.237E+03 0.248E+03   0.858E+01 -.429E+01 -.749E+01   0.540E-02 -.188E-01 -.441E-02
   -.364E+02 0.237E+03 -.853E+02   0.365E+02 -.242E+03 0.884E+02   -.148E+00 0.495E+01 -.312E+01   0.630E-03 -.635E-02 -.177E-01
   0.147E+02 -.789E+01 -.139E+03   -.143E+02 0.774E+01 0.151E+03   -.374E+00 0.141E+00 -.121E+02   -.744E-03 0.148E-02 0.866E-02
   0.121E+02 -.168E+02 0.269E+03   -.123E+02 0.184E+02 -.278E+03   0.161E+00 -.167E+01 0.905E+01   0.122E-02 0.492E-02 0.164E-02
   -.436E+02 -.204E+02 0.277E+03   0.462E+02 0.207E+02 -.285E+03   -.251E+01 -.272E+00 0.831E+01   -.451E-02 0.235E-04 0.281E-02
   -.119E+03 0.247E+03 -.683E+02   0.117E+03 -.253E+03 0.681E+02   0.276E+01 0.586E+01 0.165E+00   -.103E-01 0.464E-02 0.114E-03
   -.252E+03 0.142E+03 -.220E+03   0.259E+03 -.143E+03 0.224E+03   -.716E+01 0.984E+00 -.443E+01   -.551E-02 0.977E-02 0.520E-02
 -----------------------------------------------------------------------------------------------
   0.103E+01 -.669E+00 -.895E+01   0.000E+00 0.142E-12 -.398E-12   -.103E+01 0.666E+00 0.891E+01   0.251E-02 0.938E-02 0.393E-01
 
 
 POSITION                                       TOTAL-FORCE (eV/Angst)
 -----------------------------------------------------------------------------------
      4.18242      4.18781      0.12438         0.032239     -0.038452      0.018938
      2.22137      8.54834      6.15980         0.031896     -0.073365     -0.039759
      2.12055      6.52207      7.89448        -0.003821     -0.033709     -0.036920
      6.26164      2.26513      7.95469         0.003072     -0.036643      0.007070
      8.25169      4.26395      7.97507         0.050550      0.012518     -0.011185
      4.21236      8.56642      4.08601         0.029699      0.002188      0.091090
      6.15226      8.64827      6.11638        -0.036519      0.006204      0.017924
      4.15108      6.66519      6.14273         0.021003      0.079784      0.005470
      6.25296      6.38210      7.95889        -0.029934      0.049523      0.000149
      4.14270      4.47246      3.95278        -0.048989      0.226211     -0.445139
      2.00722      6.44374      4.08532        -0.098678      0.039060      0.326930
      8.40448     10.67876     10.04853         0.180201      0.034918     -0.138354
      6.26460      8.57858     10.05778        -0.042841      0.066104     -0.144469
      8.32160      6.45440      6.06758        -0.056453     -0.069186     -0.023741
      2.09080      2.20483      3.99300        -0.119916      0.149506     -0.100893
      6.26625      4.30085      6.08271         0.019134     -0.058411      0.030523
      4.16809      8.60910      7.99210         0.164098     -0.085123      0.278376
      4.17062      4.30523      7.98074        -0.238226      0.170382      0.051336
      6.19749      4.31560      7.93113         0.168027      0.020732      0.013458
      4.18150      8.62176      6.12168         0.004765      0.041523     -0.494163
      2.22439      2.17539      2.09356        -0.315277      0.008522      0.020992
      4.23828      4.25276      2.14713         0.020822      0.123685      0.467513
      4.20349      2.13427      4.03979         0.014753     -0.025101      0.249057
      6.24347      4.18005      4.16224        -0.039390     -0.114423      0.072921
      6.07326      2.19905      5.98039        -0.108835     -0.017239      0.312831
      8.33635      4.51604      5.95967         0.047414      0.103579      0.174674
      2.19225      4.51959      4.00085         0.080213      0.133033     -0.050490
      4.13650      6.36195      4.03844        -0.053176     -0.249651     -0.060736
      4.14140      4.07505      5.94762        -0.100769     -0.117921     -0.122351
      6.39804      6.40016      5.91463         0.124002     -0.071704      0.020543
      8.31036      6.57027      8.03802         0.020206     -0.167744     -0.110812
      2.08958      6.51330      5.89146        -0.021453     -0.000029     -0.301305
      4.14934      6.41491      8.15214        -0.049969     -0.019701     -0.019252
      6.16254      8.62626      8.12914         0.170158      0.003099     -0.142757
      6.29769      6.50991     10.07910         0.124440     -0.045576      0.001713
      8.29745      8.60353     10.07515         0.057556     -0.046595      0.080819
 -----------------------------------------------------------------------------------
    total drift:                                0.006705      0.006243      0.001591


--------------------------------------------------------------------------------------------------------



  FREE ENERGIE OF THE ION-ELECTRON SYSTEM (eV)
  ---------------------------------------------------
  free  energy   TOTEN  =      -211.83256039 eV

  energy  without entropy=     -211.82619988  energy(sigma->0) =     -211.82938013
 


--------------------------------------------------------------------------------------------------------


    POTLOK:  cpu time    0.5802: real time    0.5802


--------------------------------------------------------------------------------------------------------


     LOOP+:  cpu time  693.6194: real time  693.7801
    4ORBIT:  cpu time    0.0000: real time    0.0000
 


 total charge     
 
# of ion       s       p       d       tot
------------------------------------------
    1        2.019   0.055   0.000   2.074
    2        2.021   0.057   0.000   2.078
    3        2.020   0.055   0.000   2.074
    4        2.018   0.053   0.000   2.071
    5        2.018   0.053   0.000   2.071
    6        2.013   0.044   0.000   2.057
    7        2.020   0.056   0.000   2.076
    8        2.020   0.057   0.000   2.077
    9        2.020   0.056   0.000   2.077
   10        0.323   6.445   2.044   8.813
   11        0.313   6.436   2.016   8.766
   12        0.304   6.359   5.624  12.287
   13        0.317   6.398   5.674  12.388
   14        0.393   0.592   7.236   8.220
   15        0.232   6.181   8.822  15.235
   16        0.254   6.227   8.728  15.208
   17        0.251   6.235   7.868  14.353
   18        0.222   6.195   7.898  14.315
   19        1.556   3.442   0.000   4.998
   20        1.551   3.472   0.000   5.024
   21        1.555   3.439   0.000   4.994
   22        1.569   3.464   0.000   5.033
   23        1.566   3.449   0.000   5.015
   24        1.567   3.451   0.000   5.018
   25        1.565   3.428   0.000   4.994
   26        1.563   3.439   0.000   5.001
   27        1.568   3.482   0.000   5.049
   28        1.564   3.466   0.000   5.030
   29        1.563   3.453   0.000   5.016
   30        1.564   3.405   0.000   4.969
   31        1.553   3.456   0.000   5.010
   32        1.567   3.474   0.000   5.042
   33        1.554   3.470   0.000   5.024
   34        1.559   3.448   0.000   5.007
   35        1.560   3.485   0.000   5.045
   36        1.557   3.478   0.000   5.035
--------------------------------------------------
tot         48.880 113.754  55.909 218.543
 


 magnetization (x)
 
# of ion       s       p       d       tot
------------------------------------------
    1        0.000   0.000   0.000   0.000
    2       -0.000  -0.000   0.000  -0.000
    3        0.000   0.001   0.000   0.001
    4        0.001   0.001   0.000   0.001
    5        0.001   0.002   0.000   0.003
    6        0.000   0.000   0.000   0.001
    7        0.001   0.001   0.000   0.002
    8        0.001   0.001   0.000   0.001
    9       -0.000  -0.000   0.000  -0.001
   10        0.003   0.007   0.029   0.038
   11        0.003   0.002   0.018   0.023
   12        0.032   0.030   4.204   4.265
   13        0.024   0.028   4.150   4.202
   14        0.003   0.004   0.038   0.045
   15       -0.019   0.003  -0.506  -0.522
   16       -0.001   0.000  -0.066  -0.067
   17        0.015   0.008   1.466   1.489
   18        0.010   0.008   1.732   1.750
   19        0.003   0.011   0.000   0.014
   20        0.001  -0.120   0.000  -0.119
   21       -0.001  -0.168   0.000  -0.169
   22        0.004   0.029   0.000   0.033
   23        0.008   0.046   0.000   0.054
   24        0.009   0.105   0.000   0.114
   25        0.007   0.155   0.000   0.162
   26        0.001  -0.020   0.000  -0.019
   27       -0.000  -0.005   0.000  -0.005
   28       -0.003  -0.025   0.000  -0.029
   29        0.001  -0.061   0.000  -0.060
   30        0.000   0.009   0.000   0.009
   31        0.003   0.019   0.000   0.022
   32        0.000   0.000   0.000   0.001
   33        0.011   0.180   0.000   0.192
   34        0.009   0.042   0.000   0.051
   35        0.010   0.127   0.000   0.137
   36        0.013   0.171   0.000   0.184
--------------------------------------------------
tot          0.148   0.591  11.065  11.804
 

 total amount of memory used by VASP MPI-rank0    75281. kBytes
=======================================================================

   base      :      30000. kBytes
   nonlr-proj:       9698. kBytes
   fftplans  :       2112. kBytes
   grid      :       6536. kBytes
   one-center:        186. kBytes
   wavefun   :      26749. kBytes
 
  
  
 General timing and accounting informations for this job:
 ========================================================
  
                  Total CPU time used (sec):      711.274
                            User time (sec):      703.335
                          System time (sec):        7.940
                         Elapsed time (sec):      711.744
  
                   Maximum memory used (kb):      143584.
                   Average memory used (kb):           0.
  
                          Minor page faults:        31885
                          Major page faults:           17
                 Voluntary context switches:          524
