 vasp.6.1.2 22Jul20 (build Dec 05 2020 14:50:36) complex                        
  
 executed on         CrayXC-Intel date 2021.05.09  15:34:18
 running on   72 total cores
 distrk:  each k-point on   72 cores,    1 groups
 distr:  one band on NCORE=   6 cores,   12 groups


--------------------------------------------------------------------------------------------------------


 INCAR:
 POTCAR:    PAW_PBE Li_sv 10Sep2004               
 POTCAR:    PAW_PBE Ti_pv 07Sep2000               
 POTCAR:    PAW_PBE Fe_pv 02Aug2007               
 POTCAR:    PAW_PBE Co 02Aug2007                  
 POTCAR:    PAW_PBE Cu_pv 06Sep2000               
 POTCAR:    PAW_PBE Ni_pv 06Sep2000               
 POTCAR:    PAW_PBE O 08Apr2002                   
 POTCAR:    PAW_PBE Li_sv 10Sep2004               
   VRHFIN =Li: 1s2s2p                                                                               
   LEXCH  = PE                                                                                      
   EATOM  =   202.7858 eV,   14.9043 Ry                                                             
                                                                                                    
   TITEL  = PAW_PBE Li_sv 10Sep2004                                                                 
   LULTRA =        F    use ultrasoft PP ?                                                          
   IUNSCR =        0    unscreen: 0-lin 1-nonlin 2-no                                               
   RPACOR =    0.000    partial core radius                                                         
   POMASS =    7.010; ZVAL   =    3.000    mass and valenz                                          
   RCORE  =    1.700    outmost cutoff radius                                                       
   RWIGS  =    2.050; RWIGS  =    1.085    wigner-seitz radius (au A)                               
   ENMAX  =  499.034; ENMIN  =  374.276 eV                                                          
   ICORE  =        2    local potential                                                             
   LCOR   =        T    correct aug charges                                                         
   LPAW   =        T    paw PP                                                                      
   EAUG   =  628.945                                                                                
   RMAX   =    1.732    core radius for proj-oper                                                   
   RAUG   =    1.300    factor for augmentation sphere                                              
   RDEP   =    1.728    radius for radial grids                                                     
   RDEPT  =    1.329    core radius for aug-charge                                                  
                                                                                                    
   Atomic configuration                                                                             
    4 entries                                                                                       
     n  l   j            E        occ.                                                              
     1  0  0.50       -51.8549   2.0000                                                             
     2  0  0.50        -2.8742   1.0000                                                             
     2  1  0.50        -1.3606   0.0000                                                             
     3  2  1.50        -1.3606   0.0000                                                             
   Description                                                                                      
     l       E           TYP  RCUT    TYP  RCUT                                                     
     0    -51.8548813     23  1.400                                                                 
     0     -2.8742052     23  1.700                                                                 
     1     -1.3605826     23  1.400                                                                 
     2     -1.3605826     23  1.400                                                                 
  local pseudopotential read in
  atomic valenz-charges read in
  non local Contribution for L=           0  read in
    real space projection operators read in
  non local Contribution for L=           0  read in
    real space projection operators read in
  non local Contribution for L=           1  read in
    real space projection operators read in
    PAW grid and wavefunctions read in
 
   number of l-projection  operators is LMAX  =           3
   number of lm-projection operators is LMMAX =           5
 
 POTCAR:    PAW_PBE Ti_pv 07Sep2000               
   VRHFIN =Ti: d3 s1                                                                                
   LEXCH  = PE                                                                                      
   EATOM  =  1042.5995 eV,   76.6289 Ry                                                             
                                                                                                    
   TITEL  = PAW_PBE Ti_pv 07Sep2000                                                                 
   LULTRA =        F    use ultrasoft PP ?                                                          
   IUNSCR =        1    unscreen: 0-lin 1-nonlin 2-no                                               
   RPACOR =    2.200    partial core radius                                                         
   POMASS =   47.880; ZVAL   =   10.000    mass and valenz                                          
   RCORE  =    2.500    outmost cutoff radius                                                       
   RWIGS  =    2.500; RWIGS  =    1.323    wigner-seitz radius (au A)                               
   ENMAX  =  222.335; ENMIN  =  166.751 eV                                                          
   RCLOC  =    1.701    cutoff for local pot                                                        
   LCOR   =        T    correct aug charges                                                         
   LPAW   =        T    paw PP                                                                      
   EAUG   =  482.848                                                                                
   DEXC   =    0.000                                                                                
   RMAX   =    2.564    core radius for proj-oper                                                   
   RAUG   =    1.300    factor for augmentation sphere                                              
   RDEP   =    2.538    radius for radial grids                                                     
   RDEPT  =    1.952    core radius for aug-charge                                                  
                                                                                                    
   Atomic configuration                                                                             
    8 entries                                                                                       
     n  l   j            E        occ.                                                              
     1  0  0.50     -4865.3608   2.0000                                                             
     2  0  0.50      -533.1368   2.0000                                                             
     2  1  1.50      -440.5031   6.0000                                                             
     3  0  0.50       -59.3186   2.0000                                                             
     3  1  1.50       -35.7012   6.0000                                                             
     3  2  2.50        -1.9157   3.0000                                                             
     4  0  0.50        -3.7291   1.0000                                                             
     4  3  2.50        -1.3606   0.0000                                                             
   Description                                                                                      
     l       E           TYP  RCUT    TYP  RCUT                                                     
     1    -35.7012140     23  2.300                                                                 
     1     -1.3605826     23  2.300                                                                 
     2     -1.9156996     23  2.500                                                                 
     2     -0.4063033     23  2.500                                                                 
     0     -3.7290856     23  2.500                                                                 
     0     20.4087390     23  2.500                                                                 
  local pseudopotential read in
  partial core-charges read in
  partial kinetic energy density read in
  atomic valenz-charges read in
  non local Contribution for L=           1  read in
    real space projection operators read in
  non local Contribution for L=           1  read in
    real space projection operators read in
  non local Contribution for L=           2  read in
    real space projection operators read in
  non local Contribution for L=           2  read in
    real space projection operators read in
  non local Contribution for L=           0  read in
    real space projection operators read in
  non local Contribution for L=           0  read in
    real space projection operators read in
    PAW grid and wavefunctions read in
 
   number of l-projection  operators is LMAX  =           6
   number of lm-projection operators is LMMAX =          18
 
 POTCAR:    PAW_PBE Fe_pv 02Aug2007               
   VRHFIN =Fe:  3pd7s1                                                                              
   LEXCH  = PE                                                                                      
   EATOM  =  2457.4239 eV,  180.6156 Ry                                                             
                                                                                                    
   TITEL  = PAW_PBE Fe_pv 02Aug2007                                                                 
   LULTRA =        F    use ultrasoft PP ?                                                          
   IUNSCR =        1    unscreen: 0-lin 1-nonlin 2-no                                               
   RPACOR =    1.750    partial core radius                                                         
   POMASS =   55.847; ZVAL   =   14.000    mass and valenz                                          
   RCORE  =    2.200    outmost cutoff radius                                                       
   RWIGS  =    2.200; RWIGS  =    1.164    wigner-seitz radius (au A)                               
   ENMAX  =  293.238; ENMIN  =  219.928 eV                                                          
   ICORE  =        3    local potential                                                             
   LCOR   =        T    correct aug charges                                                         
   LPAW   =        T    paw PP                                                                      
   EAUG   =  578.342                                                                                
   DEXC   =    0.000                                                                                
   RMAX   =    2.249    core radius for proj-oper                                                   
   RAUG   =    1.300    factor for augmentation sphere                                              
   RDEP   =    2.296    radius for radial grids                                                     
   RDEPT  =    1.766    core radius for aug-charge                                                  
                                                                                                    
   Atomic configuration                                                                             
    8 entries                                                                                       
     n  l   j            E        occ.                                                              
     1  0  0.50     -6993.8440   2.0000                                                             
     2  0  0.50      -814.6047   2.0000                                                             
     2  1  1.50      -693.3689   6.0000                                                             
     3  0  0.50       -89.4732   2.0000                                                             
     3  1  1.50       -55.6373   6.0000                                                             
     3  2  2.50        -3.8151   7.0000                                                             
     4  0  0.50        -4.2551   1.0000                                                             
     4  3  2.50        -1.3606   0.0000                                                             
   Description                                                                                      
     l       E           TYP  RCUT    TYP  RCUT                                                     
     1    -55.6372668     23  2.000                                                                 
     1     -5.4423304     23  2.000                                                                 
     2     -3.8151096     23  2.200                                                                 
     2     -5.1756922     23  2.200                                                                 
     0     -4.2550951     23  2.200                                                                 
     0     27.2116520     23  2.200                                                                 
     3     -1.3605826     23  2.200                                                                 
  local pseudopotential read in
  partial core-charges read in
  partial kinetic energy density read in
  atomic valenz-charges read in
  non local Contribution for L=           1  read in
    real space projection operators read in
  non local Contribution for L=           1  read in
    real space projection operators read in
  non local Contribution for L=           2  read in
    real space projection operators read in
  non local Contribution for L=           2  read in
    real space projection operators read in
  non local Contribution for L=           0  read in
    real space projection operators read in
  non local Contribution for L=           0  read in
    real space projection operators read in
    PAW grid and wavefunctions read in
 
   number of l-projection  operators is LMAX  =           6
   number of lm-projection operators is LMMAX =          18
 
 POTCAR:    PAW_PBE Co 02Aug2007                  
   VRHFIN =Co: d8 s1                                                                                
   LEXCH  = PE                                                                                      
   EATOM  =   813.3670 eV,   59.7808 Ry                                                             
                                                                                                    
   TITEL  = PAW_PBE Co 02Aug2007                                                                    
   LULTRA =        F    use ultrasoft PP ?                                                          
   IUNSCR =        1    unscreen: 0-lin 1-nonlin 2-no                                               
   RPACOR =    2.000    partial core radius                                                         
   POMASS =   58.933; ZVAL   =    9.000    mass and valenz                                          
   RCORE  =    2.300    outmost cutoff radius                                                       
   RWIGS  =    2.460; RWIGS  =    1.302    wigner-seitz radius (au A)                               
   ENMAX  =  267.968; ENMIN  =  200.976 eV                                                          
   RCLOC  =    1.203    cutoff for local pot                                                        
   LCOR   =        T    correct aug charges                                                         
   LPAW   =        T    paw PP                                                                      
   EAUG   =  477.818                                                                                
   DEXC   =    0.000                                                                                
   RMAX   =    2.360    core radius for proj-oper                                                   
   RAUG   =    1.300    factor for augmentation sphere                                              
   RDEP   =    2.393    radius for radial grids                                                     
   RDEPT  =    1.864    core radius for aug-charge                                                  
                                                                                                    
   Atomic configuration                                                                             
    9 entries                                                                                       
     n  l   j            E        occ.                                                              
     1  0  0.50     -7587.6674   2.0000                                                             
     2  0  0.50      -893.6084   2.0000                                                             
     2  1  1.50      -764.5805   6.0000                                                             
     3  0  0.50       -97.5973   2.0000                                                             
     3  1  1.50       -60.9648   6.0000                                                             
     3  2  2.50        -4.2382   8.0000                                                             
     4  0  0.50        -4.3746   1.0000                                                             
     4  1  1.50        -4.0817   0.0000                                                             
     4  3  2.50        -1.3606   0.0000                                                             
   Description                                                                                      
     l       E           TYP  RCUT    TYP  RCUT                                                     
     2     -4.2382362     23  2.300                                                                 
     2     -5.5988188     23  2.300                                                                 
     0     -4.3745797     23  2.300                                                                 
     0      5.7660125     23  2.300                                                                 
     1     -2.7211652     23  2.300                                                                 
     1     16.9860234     23  2.300                                                                 
  local pseudopotential read in
  partial core-charges read in
  partial kinetic energy density read in
  atomic valenz-charges read in
  non local Contribution for L=           2  read in
    real space projection operators read in
  non local Contribution for L=           2  read in
    real space projection operators read in
  non local Contribution for L=           0  read in
    real space projection operators read in
  non local Contribution for L=           0  read in
    real space projection operators read in
  non local Contribution for L=           1  read in
    real space projection operators read in
  non local Contribution for L=           1  read in
    real space projection operators read in
    PAW grid and wavefunctions read in
 
   number of l-projection  operators is LMAX  =           6
   number of lm-projection operators is LMMAX =          18
 
 POTCAR:    PAW_PBE Cu_pv 06Sep2000               
   VRHFIN =Cu: d10 p1                                                                               
   LEXCH  = PE                                                                                      
   EATOM  =  4120.1201 eV,  302.8203 Ry                                                             
                                                                                                    
   TITEL  = PAW_PBE Cu_pv 06Sep2000                                                                 
   LULTRA =        F    use ultrasoft PP ?                                                          
   IUNSCR =        1    unscreen: 0-lin 1-nonlin 2-no                                               
   RPACOR =    1.500    partial core radius                                                         
   POMASS =   63.546; ZVAL   =   17.000    mass and valenz                                          
   RCORE  =    2.000    outmost cutoff radius                                                       
   RWIGS  =    2.000; RWIGS  =    1.058    wigner-seitz radius (au A)                               
   ENMAX  =  368.648; ENMIN  =  276.486 eV                                                          
   RCLOC  =    1.304    cutoff for local pot                                                        
   LCOR   =        T    correct aug charges                                                         
   LPAW   =        T    paw PP                                                                      
   EAUG   =  758.233                                                                                
   DEXC   =    0.000                                                                                
   RMAX   =    2.046    core radius for proj-oper                                                   
   RAUG   =    1.300    factor for augmentation sphere                                              
   RDEP   =    2.025    radius for radial grids                                                     
   RDEPT  =    1.558    core radius for aug-charge                                                  
                                                                                                    
   Atomic configuration                                                                             
    8 entries                                                                                       
     n  l   j            E        occ.                                                              
     1  0  0.50     -8850.2467   2.0000                                                             
     2  0  0.50     -1062.3498   2.0000                                                             
     2  1  1.50      -916.8226   6.0000                                                             
     3  0  0.50      -114.6929   2.0000                                                             
     3  1  1.50       -72.1325   6.0000                                                             
     3  2  2.50        -5.0394  10.0000                                                             
     4  0  0.50        -4.6097   1.0000                                                             
     4  3  2.50        -1.3606   0.0000                                                             
   Description                                                                                      
     l       E           TYP  RCUT    TYP  RCUT                                                     
     1    -72.1324777     23  1.700                                                                 
     1     -1.3605826     23  1.700                                                                 
     2     -5.0393776     23  2.000                                                                 
     2     -6.3999602     23  2.000                                                                 
     0     -4.6097062     23  1.800                                                                 
     0     14.1620818     23  1.800                                                                 
  local pseudopotential read in
  partial core-charges read in
  partial kinetic energy density read in
  atomic valenz-charges read in
  non local Contribution for L=           1  read in
    real space projection operators read in
  non local Contribution for L=           1  read in
    real space projection operators read in
  non local Contribution for L=           2  read in
    real space projection operators read in
  non local Contribution for L=           2  read in
    real space projection operators read in
  non local Contribution for L=           0  read in
    real space projection operators read in
  non local Contribution for L=           0  read in
    real space projection operators read in
    PAW grid and wavefunctions read in
 
   number of l-projection  operators is LMAX  =           6
   number of lm-projection operators is LMMAX =          18
 
 POTCAR:    PAW_PBE Ni_pv 06Sep2000               
   VRHFIN =Ni:                                                                                      
   LEXCH  = PE                                                                                      
   EATOM  =  3501.1230 eV,  257.3253 Ry                                                             
                                                                                                    
   TITEL  = PAW_PBE Ni_pv 06Sep2000                                                                 
   LULTRA =        F    use ultrasoft PP ?                                                          
   IUNSCR =        1    unscreen: 0-lin 1-nonlin 2-no                                               
   RPACOR =    1.500    partial core radius                                                         
   POMASS =   58.690; ZVAL   =   16.000    mass and valenz                                          
   RCORE  =    2.000    outmost cutoff radius                                                       
   RWIGS  =    2.000; RWIGS  =    1.058    wigner-seitz radius (au A)                               
   ENMAX  =  367.986; ENMIN  =  275.989 eV                                                          
   RCLOC  =    1.301    cutoff for local pot                                                        
   LCOR   =        T    correct aug charges                                                         
   LPAW   =        T    paw PP                                                                      
   EAUG   =  703.443                                                                                
   DEXC   =    0.000                                                                                
   RMAX   =    2.041    core radius for proj-oper                                                   
   RAUG   =    1.300    factor for augmentation sphere                                              
   RDEP   =    2.103    radius for radial grids                                                     
   RDEPT  =    1.618    core radius for aug-charge                                                  
                                                                                                    
   Atomic configuration                                                                             
    8 entries                                                                                       
     n  l   j            E        occ.                                                              
     1  0  0.50     -8206.4253   2.0000                                                             
     2  0  0.50      -976.1748   2.0000                                                             
     2  1  1.50      -839.0571   6.0000                                                             
     3  0  0.50      -105.9991   2.0000                                                             
     3  1  1.50       -66.4603   6.0000                                                             
     3  2  2.50        -4.6458   9.0000                                                             
     4  0  0.50        -4.4926   1.0000                                                             
     4  3  2.50        -1.3606   0.0000                                                             
   Description                                                                                      
     l       E           TYP  RCUT    TYP  RCUT                                                     
     1    -66.4602962     23  1.700                                                                 
     1     -1.3605826     23  1.700                                                                 
     2     -4.6457867     23  2.000                                                                 
     2     -6.0063693     23  2.000                                                                 
     0     -4.4925576     23  1.900                                                                 
     0     16.3626226     23  1.900                                                                 
  local pseudopotential read in
  partial core-charges read in
  partial kinetic energy density read in
  atomic valenz-charges read in
  non local Contribution for L=           1  read in
    real space projection operators read in
  non local Contribution for L=           1  read in
    real space projection operators read in
  non local Contribution for L=           2  read in
    real space projection operators read in
  non local Contribution for L=           2  read in
    real space projection operators read in
  non local Contribution for L=           0  read in
    real space projection operators read in
  non local Contribution for L=           0  read in
    real space projection operators read in
    PAW grid and wavefunctions read in
 
   number of l-projection  operators is LMAX  =           6
   number of lm-projection operators is LMMAX =          18
 
 POTCAR:    PAW_PBE O 08Apr2002                   
   VRHFIN =O: s2p4                                                                                  
   LEXCH  = PE                                                                                      
   EATOM  =   432.3788 eV,   31.7789 Ry                                                             
                                                                                                    
   TITEL  = PAW_PBE O 08Apr2002                                                                     
   LULTRA =        F    use ultrasoft PP ?                                                          
   IUNSCR =        1    unscreen: 0-lin 1-nonlin 2-no                                               
   RPACOR =    1.200    partial core radius                                                         
   POMASS =   16.000; ZVAL   =    6.000    mass and valenz                                          
   RCORE  =    1.520    outmost cutoff radius                                                       
   RWIGS  =    1.550; RWIGS  =    0.820    wigner-seitz radius (au A)                               
   ENMAX  =  400.000; ENMIN  =  300.000 eV                                                          
   ICORE  =        2    local potential                                                             
   LCOR   =        T    correct aug charges                                                         
   LPAW   =        T    paw PP                                                                      
   EAUG   =  605.392                                                                                
   DEXC   =    0.000                                                                                
   RMAX   =    1.553    core radius for proj-oper                                                   
   RAUG   =    1.300    factor for augmentation sphere                                              
   RDEP   =    1.550    radius for radial grids                                                     
   RDEPT  =    1.329    core radius for aug-charge                                                  
                                                                                                    
   Atomic configuration                                                                             
    4 entries                                                                                       
     n  l   j            E        occ.                                                              
     1  0  0.50      -514.6923   2.0000                                                             
     2  0  0.50       -23.9615   2.0000                                                             
     2  1  0.50        -9.0305   4.0000                                                             
     3  2  1.50        -9.5241   0.0000                                                             
   Description                                                                                      
     l       E           TYP  RCUT    TYP  RCUT                                                     
     0    -23.9615318     23  1.200                                                                 
     0     -9.5240782     23  1.200                                                                 
     1     -9.0304911     23  1.520                                                                 
     1      8.1634956     23  1.520                                                                 
     2     -9.5240782      7  1.500                                                                 
  local pseudopotential read in
  partial core-charges read in
  partial kinetic energy density read in
  kinetic energy density of atom read in
  atomic valenz-charges read in
  non local Contribution for L=           0  read in
    real space projection operators read in
  non local Contribution for L=           0  read in
    real space projection operators read in
  non local Contribution for L=           1  read in
    real space projection operators read in
  non local Contribution for L=           1  read in
    real space projection operators read in
    PAW grid and wavefunctions read in
 
   number of l-projection  operators is LMAX  =           4
   number of lm-projection operators is LMMAX =           8
 
 Optimization of the real space projectors (new method)

 maximal supplied QI-value         = 22.11
 optimisation between [QCUT,QGAM] = [ 11.50, 23.22] = [ 37.02,150.92] Ry 
 Optimized for a Real-space Cutoff    1.08 Angstroem

   l    n(q)    QCUT    max X(q) W(low)/X(q) W(high)/X(q)  e(spline) 
   0      7    11.497    10.506    0.36E-04    0.62E-04    0.14E-07
   0      7    11.497     8.367    0.65E-04    0.14E-03    0.28E-07
   1      7    11.497     8.983    0.21E-03    0.43E-03    0.90E-07
 Optimization of the real space projectors (new method)

 maximal supplied QI-value         = 15.12
 optimisation between [QCUT,QGAM] = [ 11.64, 23.28] = [ 37.95,151.78] Ry 
 Optimized for a Real-space Cutoff    1.49 Angstroem

   l    n(q)    QCUT    max X(q) W(low)/X(q) W(high)/X(q)  e(spline) 
   1     10    11.641     4.216    0.17E-04    0.40E-04    0.50E-07
   1     10    11.641     5.422    0.66E-04    0.10E-03    0.13E-06
   2      9    11.641    72.084    0.68E-04    0.13E-03    0.50E-06
   2      9    11.641    65.965    0.66E-04    0.13E-03    0.50E-06
   0     10    11.641    41.531    0.10E-03    0.87E-04    0.31E-06
   0     10    11.641    16.290    0.75E-04    0.66E-04    0.24E-06
 Optimization of the real space projectors (new method)

 maximal supplied QI-value         = 17.01
 optimisation between [QCUT,QGAM] = [ 11.57, 23.30] = [ 37.45,152.03] Ry 
 Optimized for a Real-space Cutoff    1.45 Angstroem

   l    n(q)    QCUT    max X(q) W(low)/X(q) W(high)/X(q)  e(spline) 
   1     10    11.565     4.267    0.91E-04    0.15E-03    0.13E-06
   1     10    11.565     5.750    0.14E-03    0.22E-03    0.20E-06
   2      9    11.565    53.656    0.13E-03    0.57E-04    0.16E-06
   2      9    11.565    49.521    0.13E-03    0.59E-04    0.16E-06
   0     10    11.565    31.246    0.61E-04    0.74E-05    0.89E-07
   0     10    11.565    12.201    0.44E-04    0.68E-05    0.74E-07
 Optimization of the real space projectors (new method)

 maximal supplied QI-value         = 16.25
 optimisation between [QCUT,QGAM] = [ 11.54, 23.24] = [ 37.28,151.24] Ry 
 Optimized for a Real-space Cutoff    1.45 Angstroem

   l    n(q)    QCUT    max X(q) W(low)/X(q) W(high)/X(q)  e(spline) 
   2      9    11.539    65.824    0.19E-03    0.47E-04    0.16E-06
   2      9    11.539    61.429    0.20E-03    0.48E-04    0.16E-06
   0     10    11.539    56.174    0.76E-04    0.45E-04    0.23E-06
   0     10    11.539    31.263    0.69E-04    0.41E-04    0.21E-06
   1     10    11.539    19.828    0.78E-04    0.14E-03    0.70E-07
   1     10    11.539    15.139    0.65E-04    0.12E-03    0.64E-07
 Optimization of the real space projectors (new method)

 maximal supplied QI-value         = 18.90
 optimisation between [QCUT,QGAM] = [ 11.53, 23.24] = [ 37.21,151.29] Ry 
 Optimized for a Real-space Cutoff    1.36 Angstroem

   l    n(q)    QCUT    max X(q) W(low)/X(q) W(high)/X(q)  e(spline) 
   1      9    11.527     3.172    0.21E-04    0.38E-04    0.11E-06
   1      9    11.527     4.083    0.67E-04    0.79E-04    0.20E-06
   2      9    11.527    65.342    0.13E-03    0.28E-03    0.26E-06
   2      9    11.527    61.381    0.13E-03    0.29E-03    0.26E-06
   0      9    11.527    65.742    0.32E-04    0.21E-04    0.72E-07
   0      9    11.527    30.431    0.28E-04    0.19E-04    0.65E-07
 Optimization of the real space projectors (new method)

 maximal supplied QI-value         = 18.90
 optimisation between [QCUT,QGAM] = [ 11.53, 23.24] = [ 37.21,151.29] Ry 
 Optimized for a Real-space Cutoff    1.36 Angstroem

   l    n(q)    QCUT    max X(q) W(low)/X(q) W(high)/X(q)  e(spline) 
   1      9    11.527     2.836    0.16E-04    0.30E-04    0.95E-07
   1      9    11.527     4.023    0.73E-04    0.81E-04    0.21E-06
   2      9    11.527    73.368    0.15E-03    0.29E-03    0.28E-06
   2      9    11.527    69.010    0.15E-03    0.29E-03    0.29E-06
   0      9    11.527    54.797    0.43E-04    0.28E-04    0.85E-07
   0      9    11.527    24.266    0.33E-04    0.24E-04    0.75E-07
 Optimization of the real space projectors (new method)

 maximal supplied QI-value         = 24.76
 optimisation between [QCUT,QGAM] = [ 11.64, 23.27] = [ 37.91,151.63] Ry 
 Optimized for a Real-space Cutoff    1.14 Angstroem

   l    n(q)    QCUT    max X(q) W(low)/X(q) W(high)/X(q)  e(spline) 
   0      8    11.635    20.381    0.10E-03    0.33E-03    0.24E-06
   0      8    11.635    15.268    0.11E-03    0.35E-03    0.26E-06
   1      7    11.635     5.964    0.24E-03    0.31E-03    0.30E-06
   1      7    11.635     5.382    0.22E-03    0.25E-03    0.26E-06
  PAW_PBE Li_sv 10Sep2004               :
 energy of atom  1       EATOM= -202.7858
 kinetic energy error for atom=    0.0130 (will be added to EATOM!!)
  PAW_PBE Ti_pv 07Sep2000               :
 energy of atom  2       EATOM=-1042.5995
 kinetic energy error for atom=    0.0019 (will be added to EATOM!!)
  PAW_PBE Fe_pv 02Aug2007               :
 energy of atom  3       EATOM=-2457.4239
 kinetic energy error for atom=    0.0062 (will be added to EATOM!!)
  PAW_PBE Co 02Aug2007                  :
 energy of atom  4       EATOM= -813.3670
 kinetic energy error for atom=    0.0028 (will be added to EATOM!!)
  PAW_PBE Cu_pv 06Sep2000               :
 energy of atom  5       EATOM=-4120.1201
 kinetic energy error for atom=    0.0541 (will be added to EATOM!!)
  PAW_PBE Ni_pv 06Sep2000               :
 energy of atom  6       EATOM=-3501.1230
 kinetic energy error for atom=    0.0575 (will be added to EATOM!!)
  PAW_PBE O 08Apr2002                   :
 energy of atom  7       EATOM= -432.3788
 kinetic energy error for atom=    0.0208 (will be added to EATOM!!)
 
 
 POSCAR: Li9 Ti2 Fe2 Co1 Cu3 Ni1 O18
  positions in direct lattice
  No initial velocities read in
 exchange correlation table for  LEXCH =        8
   RHO(1)=    0.500       N(1)  =     2000
   RHO(2)=  100.500       N(2)  =     4000
 


--------------------------------------------------------------------------------------------------------


 ion  position               nearest neighbor table
   1  0.016  0.991  0.980-  24 1.94  21 2.04  33 2.05  25 2.07  35 2.11  11 2.85
   2  0.992  0.355  0.002-  23 1.97  19 1.99  20 2.06  34 2.08  32 2.13
   3  0.019  0.653  0.966-  22 1.96  23 2.01  36 2.02  25 2.08  34 2.26  10 2.81
   4  0.335  0.338  0.987-  29 2.01  22 2.05  26 2.13  20 2.16  23 2.18  27 2.21
   5  0.320  0.354  0.517-  28 2.01  23 2.04  21 2.09  22 2.09  27 2.13  14 2.84
   6  0.335  0.655  0.500-  23 1.99  29 2.11  24 2.15  30 2.17  28 2.24
   7  0.660  0.002  0.520-  26 2.00  36 2.01  32 2.08  27 2.16  31 2.18  10 2.81
   8  0.667  0.659  0.002-  28 2.00  31 2.02  34 2.04  36 2.21  14 2.83
   9  0.669  0.650  0.501-  29 1.98  19 1.99  30 2.06  35 2.12  34 2.16  11 2.77
  10  0.997  0.996  0.500-  24 1.90  36 1.92  25 1.98  20 1.99  32 2.02  33 2.18   3 2.81   7 2.81
                            13 2.97  14 3.04  11 3.10
  11  0.670  0.984  0.034-  35 1.88  30 1.92  26 1.95  36 2.01  27 2.07  33 2.15   9 2.77   1 2.85
                            13 2.95  14 3.02  10 3.10
  12  0.011  0.353  0.483-  22 1.92  21 1.98  34 1.99  19 2.00  33 2.21  20 2.34
  13  0.338  0.004  0.508-  31 1.97  26 1.98  21 2.01  25 2.04  20 2.05  30 2.17  11 2.95  10 2.97

  14  0.664  0.334  0.504-  34 1.87  29 1.88  27 1.94  32 1.96  33 1.97  28 1.98   8 2.83   5 2.84
                            11 3.02  10 3.04
  15  0.994  0.670  0.497-  23 1.83  19 1.89  35 1.91  24 1.98
  16  0.330  0.659  0.008-  22 1.94  31 1.94  28 2.01  25 2.06
  17  0.661  0.338  0.013-  29 1.96  32 1.99  28 2.09  26 2.09  19 2.20
  18  0.330  0.006  0.992-  21 2.00  30 2.03  31 2.09  27 2.11  24 2.18  20 2.23
  19  0.858  0.498  0.712-  15 1.89   2 1.99   9 1.99  12 2.00  17 2.20
  20  0.161  0.158  0.260-  10 1.99  13 2.05   2 2.06   4 2.16  18 2.23  12 2.34
  21  0.180  0.160  0.720-  12 1.98  18 2.00  13 2.01   1 2.04   5 2.09
  22  0.183  0.492  0.211-  12 1.92  16 1.94   3 1.96   4 2.05   5 2.09
  23  0.148  0.520  0.722-  15 1.83   2 1.97   6 1.99   3 2.01   5 2.04   4 2.18
  24  0.126  0.857  0.286-  10 1.90   1 1.94  15 1.98   6 2.15  18 2.18
  25  0.166  0.843  0.741-  10 1.98  13 2.04  16 2.06   1 2.07   3 2.08
  26  0.522  0.139  0.235-  11 1.95  13 1.98   7 2.00  17 2.09   4 2.13
  27  0.515  0.166  0.753-  14 1.94  11 2.07  18 2.11   5 2.13   7 2.16   4 2.21
  28  0.507  0.492  0.245-  14 1.98   8 2.00   5 2.01  16 2.01  17 2.09   6 2.24
  29  0.533  0.465  0.726-  14 1.88  17 1.96   9 1.98   4 2.01   6 2.11
  30  0.492  0.850  0.255-  11 1.92  18 2.03   9 2.06  13 2.17   6 2.17
  31  0.474  0.831  0.791-  16 1.94  13 1.97   8 2.02  18 2.09   7 2.18
  32  0.810  0.191  0.283-  14 1.96  17 1.99  10 2.02   7 2.08   2 2.13
  33  0.839  0.164  0.733-  14 1.97   1 2.05  11 2.15  10 2.18  12 2.21
  34  0.825  0.480  0.275-  14 1.87  12 1.99   8 2.04   2 2.08   9 2.16   3 2.26
  35  0.831  0.833  0.262-  11 1.88  15 1.91   1 2.11   9 2.12
  36  0.823  0.860  0.776-  10 1.92  11 2.01   7 2.01   3 2.02   8 2.21
 

IMPORTANT INFORMATION: All symmetrisations will be switched off!
NOSYMM: (Re-)initialisation of all symmetry stuff for point group C_1.


----------------------------------------------------------------------------------------

                                     Primitive cell                                     

  volume of cell :     329.5764

  direct lattice vectors                    reciprocal lattice vectors
     0.025722000  5.998029000  6.114710000    -0.074529777  0.083273932  0.082168672
     6.768554000 -0.010225000  6.149671000     0.073727107 -0.083223394  0.081325185
     4.485741000  3.994205000  0.020788000     0.112108824  0.125098633 -0.123183093

  length of vectors
     8.565435884  9.145046813  6.006328166     0.138711665  0.137751971  0.208307778

  position of ions in fractional coordinates (direct lattice)
     0.016178000  0.990886000  0.979783000
     0.991929000  0.355413000  0.001633000
     0.019325000  0.652981000  0.966179000
     0.334968000  0.337590000  0.987278000
     0.319873000  0.354283000  0.516719000
     0.335238000  0.655027000  0.499722000
     0.659664000  0.002156000  0.519849000
     0.666627000  0.659377000  0.002299000
     0.668508000  0.649842000  0.501097000
     0.997142000  0.995882000  0.500169000
     0.670434000  0.983836000  0.034351000
     0.010942000  0.353241000  0.483316000
     0.337616000  0.003519000  0.507703000
     0.664385000  0.334341000  0.504373000
     0.993580000  0.670062000  0.496682000
     0.330309000  0.658992000  0.007607000
     0.660563000  0.337539000  0.012666000
     0.330275000  0.006156000  0.992243000
     0.857698000  0.498117000  0.712402000
     0.161055000  0.157926000  0.260251000
     0.180077000  0.159838000  0.719913000
     0.182585000  0.491955000  0.211253000
     0.148396000  0.519516000  0.721541000
     0.126148000  0.856644000  0.285563000
     0.165655000  0.843161000  0.740534000
     0.521956000  0.139216000  0.235321000
     0.514906000  0.166392000  0.753041000
     0.507249000  0.492334000  0.245388000
     0.532667000  0.464970000  0.726440000
     0.492484000  0.850350000  0.254770000
     0.473686000  0.831102000  0.791398000
     0.809568000  0.190921000  0.283361000
     0.839346000  0.163927000  0.732733000
     0.825060000  0.479930000  0.274544000
     0.831346000  0.832807000  0.262338000
     0.822561000  0.859769000  0.775538000

  ion indices of the primitive-cell ions
   primitive index   ion index
                 1           1
                 2           2
                 3           3
                 4           4
                 5           5
                 6           6
                 7           7
                 8           8
                 9           9
                10          10
                11          11
                12          12
                13          13
                14          14
                15          15
                16          16
                17          17
                18          18
                19          19
                20          20
                21          21
                22          22
                23          23
                24          24
                25          25
                26          26
                27          27
                28          28
                29          29
                30          30
                31          31
                32          32
                33          33
                34          34
                35          35
                36          36

----------------------------------------------------------------------------------------

 
 
 KPOINTS: pymatgen v2021.2.14 with grid density = 

Automatic generation of k-mesh.
Space group operators:
 irot       det(A)        alpha          n_x          n_y          n_z        tau_x        tau_y        tau_z
    1     1.000000     0.000000     1.000000     0.000000     0.000000     0.000000     0.000000     0.000000
 
 Subroutine IBZKPT returns following result:
 ===========================================
 
 Found     36 irreducible k-points:
 
 Following reciprocal coordinates:
            Coordinates               Weight
  0.000000  0.000000  0.000000      1.000000
  0.250000  0.000000 -0.000000      2.000000
  0.500000  0.000000 -0.000000      1.000000
 -0.000000  0.250000 -0.000000      2.000000
  0.250000  0.250000 -0.000000      2.000000
  0.500000  0.250000 -0.000000      2.000000
 -0.250000  0.250000 -0.000000      2.000000
  0.000000  0.500000  0.000000      1.000000
  0.250000  0.500000  0.000000      2.000000
  0.500000  0.500000  0.000000      1.000000
  0.000000 -0.000000  0.250000      2.000000
  0.250000 -0.000000  0.250000      2.000000
  0.500000 -0.000000  0.250000      2.000000
 -0.250000 -0.000000  0.250000      2.000000
  0.000000  0.250000  0.250000      2.000000
  0.250000  0.250000  0.250000      2.000000
  0.500000  0.250000  0.250000      2.000000
 -0.250000  0.250000  0.250000      2.000000
  0.000000  0.500000  0.250000      2.000000
  0.250000  0.500000  0.250000      2.000000
  0.500000  0.500000  0.250000      2.000000
 -0.250000  0.500000  0.250000      2.000000
  0.000000 -0.250000  0.250000      2.000000
  0.250000 -0.250000  0.250000      2.000000
  0.500000 -0.250000  0.250000      2.000000
 -0.250000 -0.250000  0.250000      2.000000
  0.000000 -0.000000  0.500000      1.000000
  0.250000 -0.000000  0.500000      2.000000
  0.500000 -0.000000  0.500000      1.000000
  0.000000  0.250000  0.500000      2.000000
  0.250000  0.250000  0.500000      2.000000
  0.500000  0.250000  0.500000      2.000000
 -0.250000  0.250000  0.500000      2.000000
  0.000000  0.500000  0.500000      1.000000
  0.250000  0.500000  0.500000      2.000000
  0.500000  0.500000  0.500000      1.000000
 
 Following cartesian coordinates:
            Coordinates               Weight
  0.000000  0.000000  0.000000      1.000000
 -0.018632  0.020818  0.020542      2.000000
 -0.037265  0.041637  0.041084      1.000000
  0.018432 -0.020806  0.020331      2.000000
 -0.000201  0.000013  0.040873      2.000000
 -0.018833  0.020831  0.061416      2.000000
  0.037064 -0.041624 -0.000211      2.000000
  0.036864 -0.041612  0.040663      1.000000
  0.018231 -0.020793  0.061205      2.000000
 -0.000401  0.000025  0.081747      1.000000
  0.028027  0.031275 -0.030796      2.000000
  0.009395  0.052093 -0.010254      2.000000
 -0.009238  0.072912  0.010289      2.000000
  0.046660  0.010456 -0.051338      2.000000
  0.046459  0.010469 -0.010464      2.000000
  0.027827  0.031287  0.010078      2.000000
  0.009194  0.052106  0.030620      2.000000
  0.065091 -0.010350 -0.031007      2.000000
  0.064891 -0.010337  0.009867      2.000000
  0.046258  0.010481  0.030409      2.000000
  0.027626  0.031300  0.050951      2.000000
  0.083523 -0.031156 -0.010675      2.000000
  0.009595  0.052081 -0.051127      2.000000
 -0.009037  0.072899 -0.030585      2.000000
 -0.027669  0.093717 -0.010043      2.000000
  0.028228  0.031262 -0.071669      2.000000
  0.056054  0.062549 -0.061592      1.000000
  0.037422  0.083368 -0.041049      2.000000
  0.018790  0.104186 -0.020507      1.000000
  0.074486  0.041743 -0.041260      2.000000
  0.055854  0.062562 -0.020718      2.000000
  0.037221  0.083380 -0.000176      2.000000
  0.093119  0.020925 -0.061802      2.000000
  0.092918  0.020938 -0.020929      1.000000
  0.074286  0.041756 -0.000387      2.000000
  0.055653  0.062575  0.020155      1.000000
 


--------------------------------------------------------------------------------------------------------




 Dimension of arrays:
   k-points           NKPTS =     36   k-points in BZ     NKDIM =     36   number of bands    NBANDS=    180
   number of dos      NEDOS =    301   number of ions     NIONS =     36
   non local maximal  LDIM  =      6   non local SUM 2l+1 LMDIM =     18
   total plane-waves  NPLWV = 215040
   max r-space proj   IRMAX =   9075   max aug-charges    IRDMAX=  25929
   dimension x,y,z NGX =    64 NGY =   70 NGZ =   48
   dimension x,y,z NGXF=   128 NGYF=  140 NGZF=   96
   support grid    NGXF=   128 NGYF=  140 NGZF=   96
   ions per type =               9   2   2   1   3   1  18
   NGX,Y,Z   is equivalent  to a cutoff of  12.42, 12.73, 13.29 a.u.
   NGXF,Y,Z  is equivalent  to a cutoff of  24.84, 25.45, 26.57 a.u.

 SYSTEM =  unknown system                          
 POSCAR =  Li9 Ti2 Fe2 Co1 Cu3 Ni1 O18             

 Startparameter for this run:
   NWRITE =      2    write-flag & timer
   PREC   = accura    normal or accurate (medium, high low for compatibility)
   ISTART =      0    job   : 0-new  1-cont  2-samecut
   ICHARG =      2    charge: 1-file 2-atom 10-const
   ISPIN  =      2    spin polarized calculation?
   LNONCOLLINEAR =      F non collinear calculations
   LSORBIT =      F    spin-orbit coupling
   INIWAV =      1    electr: 0-lowe 1-rand  2-diag
   LASPH  =      T    aspherical Exc in radial PAW
   METAGGA=      F    non-selfconsistent MetaGGA calc.

 Electronic Relaxation 1
   ENCUT  =  520.0 eV  38.22 Ry    6.18 a.u.  15.93 17.00 11.17*2*pi/ulx,y,z
   ENINI  =  520.0     initial cutoff
   ENAUG  =  758.2 eV  augmentation charge cutoff
   NELM   =    300;   NELMIN=  2; NELMDL=  0     # of ELM steps 
   EDIFF  = 0.1E-04   stopping-criterion for ELM
   LREAL  =      T    real-space projection
   NLSPLINE    = F    spline interpolate recip. space projectors
   LCOMPAT=      F    compatible to vasp.4.4
   GGA_COMPAT  = T    GGA compatible to vasp.4.4-vasp.4.6
   LMAXPAW     = -100 max onsite density
   LMAXMIX     =    4 max onsite mixed and CHGCAR
   VOSKOWN=      0    Vosko Wilk Nusair interpolation
   ROPT   =   -0.00025  -0.00025  -0.00025  -0.00025
   ROPT   =   -0.00025  -0.00025  -0.00025
 Ionic relaxation
   EDIFFG = 0.1E-03   stopping-criterion for IOM
   NSW    =      0    number of steps for IOM
   NBLOCK =      1;   KBLOCK =      1    inner block; outer block 
   IBRION =     -1    ionic relax: 0-MD 1-quasi-New 2-CG
   NFREE  =      0    steps in history (QN), initial steepest desc. (CG)
   ISIF   =      2    stress and relaxation
   IWAVPR =     10    prediction:  0-non 1-charg 2-wave 3-comb
   ISYM   =      0    0-nonsym 1-usesym 2-fastsym
   LCORR  =      T    Harris-Foulkes like correction to forces

   POTIM  = 0.5000    time-step for ionic-motion
   TEIN   =    0.0    initial temperature
   TEBEG  =    0.0;   TEEND  =   0.0 temperature during run
   SMASS  =  -3.00    Nose mass-parameter (am)
   estimated Nose-frequenzy (Omega)   =  0.10E-29 period in steps = 0.13E+47 mass=  -0.168E-26a.u.
   SCALEE = 1.0000    scale energy and forces
   NPACO  =    256;   APACO  = 16.0  distance and # of slots for P.C.
   PSTRESS=    0.0 pullay stress

  Mass of Ions in am
   POMASS =   7.01 47.88 55.85 58.93 63.55 58.69 16.00
  Ionic Valenz
   ZVAL   =   3.00 10.00 14.00  9.00 17.00 16.00  6.00
  Atomic Wigner-Seitz radii
   RWIGS  =  -1.00 -1.00 -1.00 -1.00 -1.00 -1.00 -1.00
  virtual crystal weights 
   VCA    =   1.00  1.00  1.00  1.00  1.00  1.00  1.00
   NELECT =     259.0000    total number of electrons
   NUPDOWN=      -1.0000    fix difference up-down

 DOS related values:
   EMIN   =  10.00;   EMAX   =-10.00  energy-range for DOS
   EFERMI =   0.00
   ISMEAR =     0;   SIGMA  =   0.05  broadening in eV -4-tet -1-fermi 0-gaus

 Electronic relaxation 2 (details)
   IALGO  =     58    algorithm
   LDIAG  =      T    sub-space diagonalisation (order eigenvalues)
   LSUBROT=      F    optimize rotation matrix (better conditioning)
   TURBO    =      0    0=normal 1=particle mesh
   IRESTART =      0    0=no restart 2=restart with 2 vectors
   NREBOOT  =      0    no. of reboots
   NMIN     =      0    reboot dimension
   EREF     =   0.00    reference energy to select bands
   IMIX   =      4    mixing-type and parameters
     AMIX     =   0.40;   BMIX     =  1.00
     AMIX_MAG =   1.60;   BMIX_MAG =  1.00
     AMIN     =   0.10
     WC   =   100.;   INIMIX=   1;  MIXPRE=   1;  MAXMIX= -45

 Intra band minimization:
   WEIMIN = 0.0000     energy-eigenvalue tresh-hold
   EBREAK =  0.14E-07  absolut break condition
   DEPER  =   0.30     relativ break condition  

   TIME   =   0.40     timestep for ELM

  volume/ion in A,a.u.               =       9.15        61.78
  Fermi-wavevector in a.u.,A,eV,Ry     =   1.510739  2.854882 31.053005  2.282332
  Thomas-Fermi vector in A             =   2.620889
 
 Write flags
   LWAVE        =      F    write WAVECAR
   LDOWNSAMPLE  =      F    k-point downsampling of WAVECAR
   LCHARG       =      T    write CHGCAR
   LVTOT        =      F    write LOCPOT, total local potential
   LVHAR        =      F    write LOCPOT, Hartree potential only
   LELF         =      F    write electronic localiz. function (ELF)
   LORBIT       =     11    0 simple, 1 ext, 2 COOP (PROOUT), +10 PAW based schemes


 Dipole corrections
   LMONO  =      F    monopole corrections only (constant potential shift)
   LDIPOL =      F    correct potential (dipole corrections)
   IDIPOL =      0    1-x, 2-y, 3-z, 4-all directions 
   EPSILON=  1.0000000 bulk dielectric constant

 LDA+U is selected, type is set to LDAUTYPE =  2
   angular momentum for each species LDAUL =     0    0    2    2    0    2    0
   U (eV)           for each species LDAUU =   0.0  0.0  5.3  3.3  0.0  6.2  0.0
   J (eV)           for each species LDAUJ =   0.0  0.0  0.0  0.0  0.0  0.0  0.0
 Exchange correlation treatment:
   GGA     =    --    GGA type
   LEXCH   =     8    internal setting for exchange type
   VOSKOWN=      0    Vosko Wilk Nusair interpolation
   LHFCALC =     F    Hartree Fock is set to
   LHFONE  =     F    Hartree Fock one center treatment
   AEXX    =    0.0000 exact exchange contribution

 Linear response parameters
   LEPSILON=     F    determine dielectric tensor
   LRPA    =     F    only Hartree local field effects (RPA)
   LNABLA  =     F    use nabla operator in PAW spheres
   LVEL    =     F    velocity operator in full k-point grid
   LINTERFAST=   F  fast interpolation
   KINTER  =     0    interpolate to denser k-point grid
   CSHIFT  =0.1000    complex shift for real part using Kramers Kronig
   OMEGAMAX=  -1.0    maximum frequency
   DEG_THRESHOLD= 0.2000000E-02 threshold for treating states as degnerate
   RTIME   =   -0.100 relaxation time in fs
  (WPLASMAI=    0.000 imaginary part of plasma frequency in eV, 0.658/RTIME)
   DFIELD  = 0.0000000 0.0000000 0.0000000 field for delta impulse in time
 
 Orbital magnetization related:
   ORBITALMAG=     F  switch on orbital magnetization
   LCHIMAG   =     F  perturbation theory with respect to B field
   DQ        =  0.001000  dq finite difference perturbation B field
   LLRAUG    =     F  two centre corrections for induced B field



--------------------------------------------------------------------------------------------------------


 Static calculation
 charge density and potential will be updated during run
 spin polarized calculation
 Conjugate gradient for all bands (Freysoldt, et al. PRB 79, 241103 (2009))
 preconditioned conjugated gradient                                        
 perform sub-space diagonalisation
    before iterative eigenvector-optimisation
 modified Broyden-mixing scheme, WC =      100.0
 initial mixing is a Kerker type mixing with AMIX =  0.4000 and BMIX =      1.0000
 Hartree-type preconditioning will be used
 using additional bands           50
 real space projection scheme for non local part
 use partial core corrections
 no Harris-corrections to forces 
 use gradient corrections 
 use of overlap-Matrix (Vanderbilt PP)
 Gauss-broadening in eV      SIGMA  =   0.05


--------------------------------------------------------------------------------------------------------


  energy-cutoff  :      520.00
  volume of cell :      329.58
      direct lattice vectors                 reciprocal lattice vectors
     0.025722000  5.998029000  6.114710000    -0.074529777  0.083273932  0.082168672
     6.768554000 -0.010225000  6.149671000     0.073727107 -0.083223394  0.081325185
     4.485741000  3.994205000  0.020788000     0.112108824  0.125098633 -0.123183093

  length of vectors
     8.565435884  9.145046813  6.006328166     0.138711665  0.137751971  0.208307778


 
 k-points in units of 2pi/SCALE and weight: pymatgen v2021.2.14 with grid density = 
   0.00000000  0.00000000  0.00000000       0.016
  -0.01863244  0.02081848  0.02054217       0.031
  -0.03726489  0.04163697  0.04108434       0.016
   0.01843178 -0.02080585  0.02033130       0.031
  -0.00020067  0.00001263  0.04087346       0.031
  -0.01883311  0.02083112  0.06141563       0.031
   0.03706422 -0.04162433 -0.00021087       0.031
   0.03686355 -0.04161170  0.04066259       0.016
   0.01823111 -0.02079321  0.06120476       0.031
  -0.00040133  0.00002527  0.08174693       0.016
   0.02802721  0.03127466 -0.03079577       0.031
   0.00939476  0.05209314 -0.01025361       0.031
  -0.00923768  0.07291162  0.01028856       0.031
   0.04665965  0.01045618 -0.05133794       0.031
   0.04645898  0.01046881 -0.01046448       0.031
   0.02782654  0.03128729  0.01007769       0.031
   0.00919409  0.05210578  0.03061986       0.031
   0.06509143 -0.01034967 -0.03100664       0.031
   0.06489076 -0.01033704  0.00986682       0.031
   0.04625832  0.01048144  0.03040899       0.031
   0.02762587  0.03129993  0.05095116       0.031
   0.08352320 -0.03115552 -0.01067535       0.031
   0.00959543  0.05208051 -0.05112707       0.031
  -0.00903702  0.07289899 -0.03058490       0.031
  -0.02766946  0.09371747 -0.01004273       0.031
   0.02822787  0.03126202 -0.07166924       0.031
   0.05605441  0.06254932 -0.06159155       0.016
   0.03742197  0.08336780 -0.04104938       0.031
   0.01878952  0.10418628 -0.02050721       0.016
   0.07448619  0.04174347 -0.04126025       0.031
   0.05585374  0.06256195 -0.02071808       0.031
   0.03722130  0.08338043 -0.00017591       0.031
   0.09311863  0.02092498 -0.06180242       0.031
   0.09291797  0.02093762 -0.02092895       0.016
   0.07428552  0.04175610 -0.00038679       0.031
   0.05565308  0.06257459  0.02015538       0.016
 
 k-points in reciprocal lattice and weights: pymatgen v2021.2.14 with grid density = 
   0.00000000  0.00000000  0.00000000       0.016
   0.25000000  0.00000000 -0.00000000       0.031
   0.50000000  0.00000000 -0.00000000       0.016
  -0.00000000  0.25000000 -0.00000000       0.031
   0.25000000  0.25000000 -0.00000000       0.031
   0.50000000  0.25000000 -0.00000000       0.031
  -0.25000000  0.25000000 -0.00000000       0.031
   0.00000000  0.50000000  0.00000000       0.016
   0.25000000  0.50000000  0.00000000       0.031
   0.50000000  0.50000000  0.00000000       0.016
   0.00000000 -0.00000000  0.25000000       0.031
   0.25000000 -0.00000000  0.25000000       0.031
   0.50000000 -0.00000000  0.25000000       0.031
  -0.25000000 -0.00000000  0.25000000       0.031
   0.00000000  0.25000000  0.25000000       0.031
   0.25000000  0.25000000  0.25000000       0.031
   0.50000000  0.25000000  0.25000000       0.031
  -0.25000000  0.25000000  0.25000000       0.031
   0.00000000  0.50000000  0.25000000       0.031
   0.25000000  0.50000000  0.25000000       0.031
   0.50000000  0.50000000  0.25000000       0.031
  -0.25000000  0.50000000  0.25000000       0.031
   0.00000000 -0.25000000  0.25000000       0.031
   0.25000000 -0.25000000  0.25000000       0.031
   0.50000000 -0.25000000  0.25000000       0.031
  -0.25000000 -0.25000000  0.25000000       0.031
   0.00000000 -0.00000000  0.50000000       0.016
   0.25000000 -0.00000000  0.50000000       0.031
   0.50000000 -0.00000000  0.50000000       0.016
   0.00000000  0.25000000  0.50000000       0.031
   0.25000000  0.25000000  0.50000000       0.031
   0.50000000  0.25000000  0.50000000       0.031
  -0.25000000  0.25000000  0.50000000       0.031
   0.00000000  0.50000000  0.50000000       0.016
   0.25000000  0.50000000  0.50000000       0.031
   0.50000000  0.50000000  0.50000000       0.016
 
 position of ions in fractional coordinates (direct lattice) 
   0.01617800  0.99088600  0.97978300
   0.99192900  0.35541300  0.00163300
   0.01932500  0.65298100  0.96617900
   0.33496800  0.33759000  0.98727800
   0.31987300  0.35428300  0.51671900
   0.33523800  0.65502700  0.49972200
   0.65966400  0.00215600  0.51984900
   0.66662700  0.65937700  0.00229900
   0.66850800  0.64984200  0.50109700
   0.99714200  0.99588200  0.50016900
   0.67043400  0.98383600  0.03435100
   0.01094200  0.35324100  0.48331600
   0.33761600  0.00351900  0.50770300
   0.66438500  0.33434100  0.50437300
   0.99358000  0.67006200  0.49668200
   0.33030900  0.65899200  0.00760700
   0.66056300  0.33753900  0.01266600
   0.33027500  0.00615600  0.99224300
   0.85769800  0.49811700  0.71240200
   0.16105500  0.15792600  0.26025100
   0.18007700  0.15983800  0.71991300
   0.18258500  0.49195500  0.21125300
   0.14839600  0.51951600  0.72154100
   0.12614800  0.85664400  0.28556300
   0.16565500  0.84316100  0.74053400
   0.52195600  0.13921600  0.23532100
   0.51490600  0.16639200  0.75304100
   0.50724900  0.49233400  0.24538800
   0.53266700  0.46497000  0.72644000
   0.49248400  0.85035000  0.25477000
   0.47368600  0.83110200  0.79139800
   0.80956800  0.19092100  0.28336100
   0.83934600  0.16392700  0.73273300
   0.82506000  0.47993000  0.27454400
   0.83134600  0.83280700  0.26233800
   0.82256100  0.85976900  0.77553800
 
 position of ions in cartesian coordinates  (Angst):
  11.10233430  4.00035846  6.21291441
   2.43847170  5.95250735  8.25106514
   8.75426299  3.96835217  4.15387002
   6.72228559  5.94908664  4.14482315
   4.72407899  3.97886660  4.14539608
   6.68383208  4.00006171  6.08847192
   2.36346885  6.03304523  4.05771937
   4.49048853  4.00088863  8.13123019
   6.66347739  6.00456988  8.09446386
   9.00995817  7.96848126 12.23197833
   6.83048169  4.14842779 10.15049129
   4.55924263  1.99248173  2.24927026
   2.30992686  4.05286444  2.09661875
   4.54258107  5.99615102  6.12909366
   6.78889451  7.93652000 10.20643944
   4.50304218  2.00484869  6.07248587
   2.35845835  4.00921529  6.11516828
   4.50110766  5.94415803  2.07801997
   6.58924438  7.98488386  8.32263962
   2.24049190  2.00389361  1.96140766
   4.31584734  3.95395283  2.09903530
   4.28214668  1.93390767  4.14620725
   6.75683519  3.76675413  4.11725038
   7.08244761  1.88847734  6.04537348
   9.03308546  3.94282678  6.21348926
   2.01130582  4.06920406  4.05263402
   4.51742454  6.09451989  4.18741114
   4.44618374  4.01759007  6.13447378
   6.41949751  6.09174808  6.13161799
   6.91113980  3.96284209  8.24606573
   9.18754937  5.99369020  8.02390797
   2.58416686  5.98566210  6.13026539
   4.41798887  7.95943131  6.15568655
   4.50118759  6.04041154  8.00212146
   6.83506336  6.02575372 10.21038224
   9.31941342  8.02261135 10.33314034
 


--------------------------------------------------------------------------------------------------------


 k-point   1 :   0.0000 0.0000 0.0000  plane waves:    8865
 k-point   2 :   0.2500 0.0000-0.0000  plane waves:    8867
 k-point   3 :   0.5000 0.0000-0.0000  plane waves:    8852
 k-point   4 :  -0.0000 0.2500-0.0000  plane waves:    8862
 k-point   5 :   0.2500 0.2500-0.0000  plane waves:    8868
 k-point   6 :   0.5000 0.2500-0.0000  plane waves:    8868
 k-point   7 :  -0.2500 0.2500-0.0000  plane waves:    8887
 k-point   8 :   0.0000 0.5000 0.0000  plane waves:    8898
 k-point   9 :   0.2500 0.5000 0.0000  plane waves:    8877
 k-point  10 :   0.5000 0.5000 0.0000  plane waves:    8886
 k-point  11 :   0.0000-0.0000 0.2500  plane waves:    8856
 k-point  12 :   0.2500-0.0000 0.2500  plane waves:    8873
 k-point  13 :   0.5000-0.0000 0.2500  plane waves:    8882
 k-point  14 :  -0.2500-0.0000 0.2500  plane waves:    8858
 k-point  15 :   0.0000 0.2500 0.2500  plane waves:    8873
 k-point  16 :   0.2500 0.2500 0.2500  plane waves:    8878
 k-point  17 :   0.5000 0.2500 0.2500  plane waves:    8886
 k-point  18 :  -0.2500 0.2500 0.2500  plane waves:    8873
 k-point  19 :   0.0000 0.5000 0.2500  plane waves:    8865
 k-point  20 :   0.2500 0.5000 0.2500  plane waves:    8868
 k-point  21 :   0.5000 0.5000 0.2500  plane waves:    8869
 k-point  22 :  -0.2500 0.5000 0.2500  plane waves:    8871
 k-point  23 :   0.0000-0.2500 0.2500  plane waves:    8857
 k-point  24 :   0.2500-0.2500 0.2500  plane waves:    8883
 k-point  25 :   0.5000-0.2500 0.2500  plane waves:    8878
 k-point  26 :  -0.2500-0.2500 0.2500  plane waves:    8869
 k-point  27 :   0.0000-0.0000 0.5000  plane waves:    8856
 k-point  28 :   0.2500-0.0000 0.5000  plane waves:    8880
 k-point  29 :   0.5000-0.0000 0.5000  plane waves:    8880
 k-point  30 :   0.0000 0.2500 0.5000  plane waves:    8865
 k-point  31 :   0.2500 0.2500 0.5000  plane waves:    8884
 k-point  32 :   0.5000 0.2500 0.5000  plane waves:    8890
 k-point  33 :  -0.2500 0.2500 0.5000  plane waves:    8879
 k-point  34 :   0.0000 0.5000 0.5000  plane waves:    8858
 k-point  35 :   0.2500 0.5000 0.5000  plane waves:    8890
 k-point  36 :   0.5000 0.5000 0.5000  plane waves:    8898

 maximum and minimum number of plane-waves per node :      1515     1444

 maximum number of plane-waves:      8898
 maximum index in each direction: 
   IXMAX=   16   IYMAX=   17   IZMAX=   11
   IXMIN=  -16   IYMIN=  -17   IZMIN=  -11


 real space projection operators:
  total allocation   :      15212.73 KBytes
  max/ min on nodes  :       2617.27       2384.43


 parallel 3D FFT for wavefunctions:
    minimum data exchange during FFTs selected (reduces bandwidth)
 parallel 3D FFT for charge:
    minimum data exchange during FFTs selected (reduces bandwidth)


 total amount of memory used by VASP MPI-rank0   129324. kBytes
=======================================================================

   base      :      30000. kBytes
   nonlr-proj:       8766. kBytes
   fftplans  :       1994. kBytes
   grid      :       6265. kBytes
   one-center:        186. kBytes
   wavefun   :      82113. kBytes
 
     INWAV:  cpu time    0.0000: real time    0.0000
 Broyden mixing: mesh for mixing (old mesh)
   NGX = 31   NGY = 33   NGZ = 23
  (NGX  =128   NGY  =140   NGZ  = 96)
  gives a total of  23529 points

 initial charge density was supplied:
 charge density of overlapping atoms calculated
 number of electron     259.0000000 magnetization      34.8000000
 charge density for first step will be calculated from the start-wavefunctions


--------------------------------------------------------------------------------------------------------


 Maximum index for non-local projection operator         1641
 Maximum index for augmentation-charges          998 (set IRDMAX)


--------------------------------------------------------------------------------------------------------


 First call to EWALD:  gamma=   0.257
 Maximum number of real-space cells 3x 3x 4
 Maximum number of reciprocal cells 3x 3x 2

    FEWALD:  cpu time    0.0019: real time    0.0019


--------------------------------------- Iteration      1(   1)  ---------------------------------------


    POTLOK:  cpu time    0.0536: real time    0.0537
atom =   1  type =  1  l = 0
 
 onsite density matrix
 
spin component  1
 
  1.2239
 
spin component  2
 
  0.8159
 
 occupancies and eigenvectors
 
  o =  0.8159  v =  0.0000  1.0000      0.0000  0.0000
  o =  1.2239  v =  1.0000  0.0000      0.0000  0.0000
atom =   2  type =  1  l = 0
 
 onsite density matrix
 
spin component  1
 
  1.2239
 
spin component  2
 
  0.8159
 
 occupancies and eigenvectors
 
  o =  0.8159  v =  0.0000  1.0000      0.0000  0.0000
  o =  1.2239  v =  1.0000  0.0000      0.0000  0.0000
atom =   3  type =  1  l = 0
 
 onsite density matrix
 
spin component  1
 
  1.2239
 
spin component  2
 
  0.8159
 
 occupancies and eigenvectors
 
  o =  0.8159  v =  0.0000  1.0000      0.0000  0.0000
  o =  1.2239  v =  1.0000  0.0000      0.0000  0.0000
atom =   4  type =  1  l = 0
 
 onsite density matrix
 
spin component  1
 
  1.2239
 
spin component  2
 
  0.8159
 
 occupancies and eigenvectors
 
  o =  0.8159  v =  0.0000  1.0000      0.0000  0.0000
  o =  1.2239  v =  1.0000  0.0000      0.0000  0.0000
atom =   5  type =  1  l = 0
 
 onsite density matrix
 
spin component  1
 
  1.2239
 
spin component  2
 
  0.8159
 
 occupancies and eigenvectors
 
  o =  0.8159  v =  0.0000  1.0000      0.0000  0.0000
  o =  1.2239  v =  1.0000  0.0000      0.0000  0.0000
atom =   6  type =  1  l = 0
 
 onsite density matrix
 
spin component  1
 
  1.2239
 
spin component  2
 
  0.8159
 
 occupancies and eigenvectors
 
  o =  0.8159  v =  0.0000  1.0000      0.0000  0.0000
  o =  1.2239  v =  1.0000  0.0000      0.0000  0.0000
atom =   7  type =  1  l = 0
 
 onsite density matrix
 
spin component  1
 
  1.2239
 
spin component  2
 
  0.8159
 
 occupancies and eigenvectors
 
  o =  0.8159  v =  0.0000  1.0000      0.0000  0.0000
  o =  1.2239  v =  1.0000  0.0000      0.0000  0.0000
atom =   8  type =  1  l = 0
 
 onsite density matrix
 
spin component  1
 
  1.2239
 
spin component  2
 
  0.8159
 
 occupancies and eigenvectors
 
  o =  0.8159  v =  0.0000  1.0000      0.0000  0.0000
  o =  1.2239  v =  1.0000  0.0000      0.0000  0.0000
atom =   9  type =  1  l = 0
 
 onsite density matrix
 
spin component  1
 
  1.2239
 
spin component  2
 
  0.8159
 
 occupancies and eigenvectors
 
  o =  0.8159  v =  0.0000  1.0000      0.0000  0.0000
  o =  1.2239  v =  1.0000  0.0000      0.0000  0.0000
atom =  10  type =  2  l = 0
 
 onsite density matrix
 
spin component  1
 
  0.1088
 
spin component  2
 
  0.0965
 
 occupancies and eigenvectors
 
  o =  0.0965  v =  0.0000  1.0000      0.0000  0.0000
  o =  0.1088  v =  1.0000  0.0000      0.0000  0.0000
atom =  11  type =  2  l = 0
 
 onsite density matrix
 
spin component  1
 
  0.1088
 
spin component  2
 
  0.0965
 
 occupancies and eigenvectors
 
  o =  0.0965  v =  0.0000  1.0000      0.0000  0.0000
  o =  0.1088  v =  1.0000  0.0000      0.0000  0.0000
atom =  12  type =  3  l = 2
 
 onsite density matrix
 
spin component  1
 
  0.8527  0.0000  0.0000  0.0000  0.0000
  0.0000  0.8527  0.0000  0.0000  0.0000
  0.0000  0.0000  0.8527  0.0000  0.0000
  0.0000  0.0000  0.0000  0.8527  0.0000
  0.0000  0.0000  0.0000  0.0000  0.8527
 
spin component  2
 
  0.4039  0.0000  0.0000  0.0000  0.0000
  0.0000  0.4039  0.0000  0.0000  0.0000
  0.0000  0.0000  0.4039  0.0000  0.0000
  0.0000  0.0000  0.0000  0.4039  0.0000
  0.0000  0.0000  0.0000  0.0000  0.4039
 
 occupancies and eigenvectors
 
  o =  0.4039  v =  0.0000  0.0000  0.0000  0.0000  0.0000  1.0000  0.0000  0.0000  0.0000  0.0000      0.0000  0.0000  0.0000  0.0000  0.0000  0.0000  0.0000  0.0000  0.0000  0.0000
  o =  0.4039  v =  0.0000  0.0000  0.0000  0.0000  0.0000  0.0000  1.0000  0.0000  0.0000  0.0000      0.0000  0.0000  0.0000  0.0000  0.0000  0.0000  0.0000  0.0000  0.0000  0.0000
  o =  0.4039  v =  0.0000  0.0000  0.0000  0.0000  0.0000  0.0000  0.0000  1.0000  0.0000  0.0000      0.0000  0.0000  0.0000  0.0000  0.0000  0.0000  0.0000  0.0000  0.0000  0.0000
  o =  0.4039  v =  0.0000  0.0000  0.0000  0.0000  0.0000  0.0000  0.0000  0.0000  0.0000 -1.0000      0.0000  0.0000  0.0000  0.0000  0.0000  0.0000  0.0000  0.0000  0.0000  0.0000
  o =  0.4039  v =  0.0000  0.0000  0.0000  0.0000  0.0000  0.0000  0.0000  0.0000 -1.0000  0.0000      0.0000  0.0000  0.0000  0.0000  0.0000  0.0000  0.0000  0.0000  0.0000  0.0000
  o =  0.8527  v =  1.0000  0.0000  0.0000  0.0000  0.0000  0.0000  0.0000  0.0000  0.0000  0.0000      0.0000  0.0000  0.0000  0.0000  0.0000  0.0000  0.0000  0.0000  0.0000  0.0000
  o =  0.8527  v =  0.0000  1.0000  0.0000  0.0000  0.0000  0.0000  0.0000  0.0000  0.0000  0.0000      0.0000  0.0000  0.0000  0.0000  0.0000  0.0000  0.0000  0.0000  0.0000  0.0000
  o =  0.8527  v =  0.0000  0.0000  1.0000  0.0000  0.0000  0.0000  0.0000  0.0000  0.0000  0.0000      0.0000  0.0000  0.0000  0.0000  0.0000  0.0000  0.0000  0.0000  0.0000  0.0000
  o =  0.8527  v =  0.0000  0.0000  0.0000  0.0000 -1.0000  0.0000  0.0000  0.0000  0.0000  0.0000      0.0000  0.0000  0.0000  0.0000  0.0000  0.0000  0.0000  0.0000  0.0000  0.0000
  o =  0.8527  v =  0.0000  0.0000  0.0000 -1.0000  0.0000  0.0000  0.0000  0.0000  0.0000  0.0000      0.0000  0.0000  0.0000  0.0000  0.0000  0.0000  0.0000  0.0000  0.0000  0.0000
atom =  13  type =  3  l = 2
 
 onsite density matrix
 
spin component  1
 
  0.8527  0.0000  0.0000  0.0000  0.0000
  0.0000  0.8527  0.0000  0.0000  0.0000
  0.0000  0.0000  0.8527  0.0000  0.0000
  0.0000  0.0000  0.0000  0.8527  0.0000
  0.0000  0.0000  0.0000  0.0000  0.8527
 
spin component  2
 
  0.4039  0.0000  0.0000  0.0000  0.0000
  0.0000  0.4039  0.0000  0.0000  0.0000
  0.0000  0.0000  0.4039  0.0000  0.0000
  0.0000  0.0000  0.0000  0.4039  0.0000
  0.0000  0.0000  0.0000  0.0000  0.4039
 
 occupancies and eigenvectors
 
  o =  0.4039  v =  0.0000  0.0000  0.0000  0.0000  0.0000  1.0000  0.0000  0.0000  0.0000  0.0000      0.0000  0.0000  0.0000  0.0000  0.0000  0.0000  0.0000  0.0000  0.0000  0.0000
  o =  0.4039  v =  0.0000  0.0000  0.0000  0.0000  0.0000  0.0000  1.0000  0.0000  0.0000  0.0000      0.0000  0.0000  0.0000  0.0000  0.0000  0.0000  0.0000  0.0000  0.0000  0.0000
  o =  0.4039  v =  0.0000  0.0000  0.0000  0.0000  0.0000  0.0000  0.0000  1.0000  0.0000  0.0000      0.0000  0.0000  0.0000  0.0000  0.0000  0.0000  0.0000  0.0000  0.0000  0.0000
  o =  0.4039  v =  0.0000  0.0000  0.0000  0.0000  0.0000  0.0000  0.0000  0.0000  0.0000 -1.0000      0.0000  0.0000  0.0000  0.0000  0.0000  0.0000  0.0000  0.0000  0.0000  0.0000
  o =  0.4039  v =  0.0000  0.0000  0.0000  0.0000  0.0000  0.0000  0.0000  0.0000 -1.0000  0.0000      0.0000  0.0000  0.0000  0.0000  0.0000  0.0000  0.0000  0.0000  0.0000  0.0000
  o =  0.8527  v =  1.0000  0.0000  0.0000  0.0000  0.0000  0.0000  0.0000  0.0000  0.0000  0.0000      0.0000  0.0000  0.0000  0.0000  0.0000  0.0000  0.0000  0.0000  0.0000  0.0000
  o =  0.8527  v =  0.0000  1.0000  0.0000  0.0000  0.0000  0.0000  0.0000  0.0000  0.0000  0.0000      0.0000  0.0000  0.0000  0.0000  0.0000  0.0000  0.0000  0.0000  0.0000  0.0000
  o =  0.8527  v =  0.0000  0.0000  1.0000  0.0000  0.0000  0.0000  0.0000  0.0000  0.0000  0.0000      0.0000  0.0000  0.0000  0.0000  0.0000  0.0000  0.0000  0.0000  0.0000  0.0000
  o =  0.8527  v =  0.0000  0.0000  0.0000  0.0000 -1.0000  0.0000  0.0000  0.0000  0.0000  0.0000      0.0000  0.0000  0.0000  0.0000  0.0000  0.0000  0.0000  0.0000  0.0000  0.0000
  o =  0.8527  v =  0.0000  0.0000  0.0000 -1.0000  0.0000  0.0000  0.0000  0.0000  0.0000  0.0000      0.0000  0.0000  0.0000  0.0000  0.0000  0.0000  0.0000  0.0000  0.0000  0.0000
atom =  14  type =  4  l = 2
 
 onsite density matrix
 
spin component  1
 
  0.7913  0.0000  0.0000  0.0000  0.0000
  0.0000  0.7913  0.0000  0.0000  0.0000
  0.0000  0.0000  0.7913  0.0000 -0.0000
  0.0000  0.0000  0.0000  0.7913  0.0000
  0.0000  0.0000 -0.0000  0.0000  0.7913
 
spin component  2
 
  0.6923  0.0000  0.0000  0.0000  0.0000
  0.0000  0.6923  0.0000  0.0000  0.0000
  0.0000  0.0000  0.6923  0.0000 -0.0000
  0.0000  0.0000  0.0000  0.6923  0.0000
  0.0000  0.0000 -0.0000  0.0000  0.6923
 
 occupancies and eigenvectors
 
  o =  0.6923  v =  0.0000  0.0000  0.0000  0.0000  0.0000  1.0000  0.0000  0.0000  0.0000  0.0000      0.0000  0.0000  0.0000  0.0000  0.0000  0.0000  0.0000  0.0000  0.0000  0.0000
  o =  0.6923  v =  0.0000  0.0000  0.0000  0.0000  0.0000  0.0000  1.0000  0.0000  0.0000  0.0000      0.0000  0.0000  0.0000  0.0000  0.0000  0.0000  0.0000  0.0000  0.0000  0.0000
  o =  0.6923  v =  0.0000  0.0000  0.0000  0.0000  0.0000  0.0000  0.0000  1.0000  0.0000  0.0000      0.0000  0.0000  0.0000  0.0000  0.0000  0.0000  0.0000  0.0000  0.0000  0.0000
  o =  0.6923  v =  0.0000  0.0000  0.0000  0.0000  0.0000  0.0000  0.0000  0.0000  0.0000  1.0000      0.0000  0.0000  0.0000  0.0000  0.0000  0.0000  0.0000  0.0000  0.0000  0.0000
[...]
    177      16.6598      0.00000
    178      16.7334      0.00000
    179      16.8559      0.00000
    180      17.0609      0.00000


--------------------------------------------------------------------------------------------------------


 soft charge-density along one line, spin component           1
         0         1         2         3         4         5         6         7         8         9
 total charge-density along one line
 
 soft charge-density along one line, spin component           2
         0         1         2         3         4         5         6         7         8         9
 total charge-density along one line
 
 pseudopotential strength for first ion, spin component:           1
-37.403   3.849   0.002   0.000  -0.001
  3.849 -10.284   0.007   0.002  -0.006
  0.002   0.007   0.162   0.000  -0.001
  0.000   0.002   0.000   0.162   0.000
 -0.001  -0.006  -0.001   0.000   0.165
 pseudopotential strength for first ion, spin component:           2
-37.402   3.849   0.002   0.000  -0.001
  3.849 -10.285   0.007   0.002  -0.005
  0.002   0.007   0.163   0.000  -0.001
  0.000   0.002   0.000   0.163   0.000
 -0.001  -0.005  -0.001   0.000   0.165
 total augmentation occupancy for first ion, spin component:           1
  2.000  -0.002  -0.005  -0.001   0.003
 -0.002   0.764   0.015   0.008  -0.013
 -0.005   0.015   0.033  -0.001   0.004
 -0.001   0.008  -0.001   0.032  -0.001
  0.003  -0.013   0.004  -0.001   0.022
 total augmentation occupancy for first ion, spin component:           2
 -0.000  -0.000   0.000  -0.000   0.000
 -0.000   0.006  -0.001   0.001   0.000
  0.000  -0.001   0.000   0.000   0.000
 -0.000   0.001   0.000   0.000  -0.000
  0.000   0.000   0.000  -0.000  -0.000


------------------------ aborting loop because EDIFF is reached ----------------------------------------


 


 total charge     
 
# of ion       s       p       d       tot
------------------------------------------
    1        2.024   0.062   0.000   2.085
    2        2.023   0.060   0.000   2.084
    3        2.023   0.061   0.000   2.084
    4        2.018   0.053   0.000   2.071
    5        2.022   0.058   0.000   2.079
    6        2.017   0.050   0.000   2.066
    7        2.020   0.057   0.000   2.077
    8        2.018   0.050   0.000   2.068
    9        2.021   0.058   0.000   2.080
   10        0.322   6.451   1.971   8.744
   11        0.326   6.463   1.990   8.779
   12        0.307   6.365   5.640  12.312
   13        0.308   6.384   5.661  12.353
   14        0.417   0.645   7.147   8.208
   15        0.277   6.230   8.747  15.254
   16        0.241   6.174   8.781  15.196
   17        0.221   6.170   8.779  15.170
   18        0.216   6.185   7.886  14.287
   19        1.567   3.422   0.000   4.989
   20        1.561   3.469   0.000   5.030
   21        1.552   3.496   0.000   5.048
   22        1.554   3.468   0.000   5.022
   23        1.557   3.442   0.000   4.999
   24        1.566   3.459   0.000   5.025
   25        1.560   3.470   0.000   5.030
   26        1.562   3.487   0.000   5.049
   27        1.557   3.454   0.000   5.011
   28        1.561   3.404   0.000   4.965
   29        1.566   3.411   0.000   4.978
   30        1.562   3.474   0.000   5.035
   31        1.558   3.449   0.000   5.006
   32        1.561   3.448   0.000   5.009
   33        1.563   3.454   0.000   5.017
   34        1.562   3.449   0.000   5.011
   35        1.562   3.462   0.000   5.023
   36        1.567   3.491   0.000   5.058
--------------------------------------------------
tot         48.918 113.783  56.601 219.302
 


 magnetization (x)
 
# of ion       s       p       d       tot
------------------------------------------
    1        0.000   0.000   0.000   0.000
    2        0.001   0.001   0.000   0.002
    3        0.000   0.001   0.000   0.001
    4        0.001   0.000   0.000   0.001
    5        0.000  -0.000   0.000  -0.000
    6        0.000   0.001   0.000   0.001
    7        0.000   0.000   0.000   0.001
    8        0.001   0.002   0.000   0.003
    9        0.001   0.001   0.000   0.002
   10        0.004   0.010   0.032   0.046
   11        0.001   0.003   0.013   0.017
   12        0.026   0.042   4.189   4.257
   13        0.021   0.032   4.206   4.259
   14        0.013   0.017   1.376   1.405
   15        0.002   0.001  -0.004  -0.000
   16        0.013   0.001   0.470   0.485
   17        0.007   0.003   0.559   0.569
   18        0.012   0.008   1.755   1.774
   19        0.006   0.132   0.000   0.138
   20        0.010   0.129   0.000   0.139
   21        0.014   0.195   0.000   0.209
   22        0.011   0.170   0.000   0.181
   23        0.000   0.013   0.000   0.013
   24        0.004   0.013   0.000   0.017
   25        0.011   0.150   0.000   0.161
   26        0.007   0.118   0.000   0.125
   27        0.005   0.012   0.000   0.017
   28        0.011   0.074   0.000   0.085
   29        0.005   0.104   0.000   0.109
   30        0.007   0.086   0.000   0.093
   31        0.011   0.225   0.000   0.236
   32        0.005   0.055   0.000   0.060
   33        0.008   0.052   0.000   0.060
   34        0.006   0.109   0.000   0.115
   35       -0.000   0.000   0.000   0.000
   36        0.000   0.011   0.000   0.011
--------------------------------------------------
tot          0.226   1.769  12.596  14.591
 
    FORLOC:  cpu time    0.0055: real time    0.0055
    FORNL :  cpu time    3.1006: real time    3.1007
    STRESS:  cpu time    9.2932: real time    9.2937
    FORCOR:  cpu time    0.0485: real time    0.0485
    OFIELD:  cpu time    0.0002: real time    0.0002

  FORCE on cell =-STRESS in cart. coord.  units (eV):
  Direction    XX          YY          ZZ          XY          YZ          ZX
  --------------------------------------------------------------------------------------
  Alpha Z  1064.67222  1064.67222  1064.67222
  Ewald   -7408.39248 -6637.26087 -6292.23745   275.33273   106.48131   146.20198
  Hartree  3384.41133  3582.53042  3970.00627   194.82456    58.57404   113.48106
  E(xc)   -1507.33308 -1504.73588 -1504.95168     0.15135     0.04327     0.11516
  Local    -249.14049 -1158.25368 -1889.97181  -466.02616  -163.53613  -253.19425
  n-local -1017.22849 -1011.25821 -1012.83893     0.59052     0.72014     0.11495
  augment  1590.56966  1571.09113  1566.36375    -1.01641     0.17522    -3.99669
  Kinetic  4142.20803  4094.30269  4098.47196    -3.70266    -2.31369    -2.68977
  Fock        0.00000     0.00000     0.00000     0.00000     0.00000     0.00000
  -------------------------------------------------------------------------------------
  Total      -0.23330     1.08781    -0.48568     0.15393     0.14415     0.03245
  in kB      -1.13417     5.28820    -2.36106     0.74829     0.70075     0.15773
  external pressure =        0.60 kB  Pullay stress =        0.00 kB


 VOLUME and BASIS-vectors are now :
 -----------------------------------------------------------------------------
  energy-cutoff  :      520.00
  volume of cell :      329.58
      direct lattice vectors                 reciprocal lattice vectors
     0.025722000  5.998029000  6.114710000    -0.074529777  0.083273932  0.082168672
     6.768554000 -0.010225000  6.149671000     0.073727107 -0.083223394  0.081325185
     4.485741000  3.994205000  0.020788000     0.112108824  0.125098633 -0.123183093

  length of vectors
     8.565435884  9.145046813  6.006328166     0.138711665  0.137751971  0.208307778


 FORCES acting on ions:
    Electron-Ion                     Ewald-Force                    Non-Local-Force
 -----------------------------------------------------------------------------------------------
   -.432E+02 0.321E+02 0.329E+02   0.426E+02 -.314E+02 -.326E+02   0.576E+00 -.688E+00 -.297E+00
   -.613E+01 -.210E+02 -.195E+02   0.672E+01 0.204E+02 0.207E+02   -.591E+00 0.644E+00 -.114E+01
   -.912E+00 0.269E+02 0.408E+02   -.456E+00 -.264E+02 -.404E+02   0.131E+01 -.520E+00 -.491E+00
   0.677E+01 0.658E+02 0.594E+01   -.627E+01 -.655E+02 -.518E+01   -.531E+00 -.340E+00 -.752E+00
   -.168E+02 -.473E+02 -.587E+00   0.177E+02 0.470E+02 0.954E+00   -.897E+00 0.366E+00 -.389E+00
   0.120E+02 -.522E+02 -.425E+00   -.120E+02 0.522E+02 -.995E+00   0.497E-01 0.927E-02 0.143E+01
   0.198E+02 -.275E+02 0.117E+02   -.194E+02 0.272E+02 -.111E+02   -.356E+00 0.206E+00 -.520E+00
   -.128E+02 -.356E+02 -.533E+02   0.130E+02 0.356E+02 0.522E+02   -.151E+00 0.848E-01 0.123E+01
   -.516E+00 0.496E+02 -.201E+02   -.361E+00 -.490E+02 0.196E+02   0.769E+00 -.627E+00 0.551E+00
   -.331E+02 0.555E+02 0.846E+02   0.327E+02 -.556E+02 -.845E+02   0.187E+00 0.151E-01 -.103E+00
   0.129E+03 -.996E+02 0.500E+01   -.129E+03 0.990E+02 -.553E+01   -.195E+00 0.718E+00 0.416E+00
   0.820E+02 0.883E+02 -.192E+02   -.788E+02 -.889E+02 0.226E+02   -.334E+01 0.594E+00 -.370E+01
   0.108E+03 0.433E+01 -.129E+03   -.105E+03 -.268E+01 0.129E+03   -.285E+01 -.186E+01 0.104E-01
   -.415E+02 0.123E+03 0.116E+02   0.421E+02 -.123E+03 -.110E+02   -.555E+00 0.410E+00 -.657E+00
   -.226E+03 0.375E+02 0.812E+02   0.226E+03 -.336E+02 -.836E+02   0.722E+00 -.405E+01 0.255E+01
   0.133E+03 -.105E+02 0.829E+02   -.134E+03 0.119E+02 -.835E+02   0.418E+00 -.131E+01 0.526E+00
   0.168E+02 -.111E+03 -.317E+02   -.123E+02 0.109E+03 0.299E+02   -.459E+01 0.207E+01 0.190E+01
   -.950E+02 -.109E+02 -.124E+03   0.918E+02 0.100E+02 0.125E+03   0.342E+01 0.911E+00 -.126E+01
   -.158E+03 -.911E+01 0.834E+02   0.165E+03 0.954E+01 -.911E+02   -.746E+01 -.415E+00 0.739E+01
   -.313E+02 0.192E+03 -.114E+03   0.316E+02 -.199E+03 0.122E+03   -.206E+00 0.644E+01 -.786E+01
   -.172E+03 0.271E+02 -.284E+02   0.179E+03 -.260E+02 0.285E+02   -.686E+01 -.122E+01 -.136E+00
   0.145E+03 0.538E+02 0.456E+02   -.149E+03 -.536E+02 -.448E+02   0.352E+01 -.120E+00 -.469E+00
   -.277E+02 -.309E+03 0.807E+01   0.278E+02 0.322E+03 -.808E+01   -.111E+00 -.125E+02 0.701E-01
   -.206E+02 0.343E+01 -.350E+02   0.118E+02 -.311E+01 0.385E+02   0.921E+01 -.318E+00 -.333E+01
   0.418E+02 0.730E+02 0.186E+03   -.429E+02 -.702E+02 -.192E+03   0.111E+01 -.278E+01 0.601E+01
   -.641E+02 -.233E+02 -.150E+02   0.726E+02 0.219E+02 0.195E+02   -.858E+01 0.136E+01 -.452E+01
   -.664E+01 0.104E+03 -.464E+02   0.675E+01 -.110E+03 0.426E+02   -.106E+00 0.604E+01 0.387E+01
   -.180E+03 -.130E+03 -.245E+02   0.184E+03 0.129E+03 0.247E+02   -.411E+01 0.567E+00 -.239E+00
   -.113E+02 0.261E+03 0.648E+00   0.203E+02 -.269E+03 -.133E+01   -.903E+01 0.791E+01 0.705E+00
   0.168E+03 -.204E+03 0.109E+03   -.173E+03 0.209E+03 -.120E+03   0.439E+01 -.421E+01 0.113E+02
   0.159E+03 -.214E+03 -.220E+03   -.164E+03 0.223E+03 0.227E+03   0.427E+01 -.906E+01 -.771E+01
   0.846E+02 -.860E+02 -.560E+01   -.913E+02 0.849E+02 0.633E+01   0.666E+01 0.120E+01 -.745E+00
   0.273E+02 -.910E+02 0.462E+02   -.236E+02 0.972E+02 -.433E+02   -.379E+01 -.591E+01 -.292E+01
   -.363E-01 0.209E+03 -.145E+03   -.351E-01 -.217E+03 0.155E+03   0.624E-01 0.805E+01 -.969E+01
   -.285E+01 0.116E+03 0.322E+02   0.278E+01 -.115E+03 -.323E+02   0.958E-01 -.139E+01 0.277E-01
   0.271E+02 -.299E+02 0.164E+03   -.331E+02 0.300E+02 -.174E+03   0.612E+01 -.176E+00 0.962E+01
 -----------------------------------------------------------------------------------------------
   0.114E+02 0.986E+01 -.678E+00   0.284E-12 0.306E-12 0.853E-13   -.114E+02 -.985E+01 0.685E+00
 
 
 POSITION                                       TOTAL-FORCE (eV/Angst)
 -----------------------------------------------------------------------------------
     11.10233      4.00036      6.21291         0.014121     -0.037681     -0.053324
      2.43847      5.95251      8.25107        -0.004013      0.000736      0.061810
      8.75426      3.96835      4.15387        -0.057424     -0.000203     -0.018295
      6.72229      5.94909      4.14482        -0.035106     -0.050426      0.012771
      4.72408      3.97887      4.14540         0.031999      0.063753     -0.022595
      6.68383      4.00006      6.08847         0.054167      0.030093      0.014974
      2.36347      6.03305      4.05772         0.026407     -0.036705      0.014612
      4.49049      4.00089      8.13123         0.029188      0.016897      0.082564
      6.66348      6.00457      8.09446        -0.107980      0.002527      0.045638
      9.00996      7.96848     12.23198        -0.282111     -0.070082     -0.048687
      6.83048      4.14843     10.15049         0.136124      0.221982     -0.210695
      4.55924      1.99248      2.24927        -0.057010      0.010124     -0.219137
      2.30993      4.05286      2.09662        -0.121162     -0.196927      0.012307
      4.54258      5.99615      6.12909         0.140664     -0.078993      0.011543
      6.78889      7.93652     10.20644        -0.026139     -0.148147      0.106209
      4.50304      2.00485      6.07249        -0.014360      0.051876     -0.090737
      2.35846      4.00922      6.11517        -0.083444     -0.040927      0.089336
      4.50111      5.94416      2.07802         0.148942      0.004481     -0.042881
      6.58924      7.98488      8.32264         0.131432      0.017557     -0.231245
      2.24049      2.00389      1.96141         0.092215      0.003613     -0.137113
      4.31585      3.95395      2.09904        -0.001476     -0.125395     -0.022021
      4.28215      1.93391      4.14621        -0.136402      0.062451      0.286275
      6.75684      3.76675      4.11725        -0.042036      0.313471      0.059134
      7.08245      1.88848      6.04537         0.388471      0.000175      0.172321
      9.03309      3.94283      6.21349         0.044148     -0.021592     -0.087335
      2.01131      4.06920      4.05263        -0.077530      0.011605     -0.042091
      4.51742      6.09452      4.18741        -0.003011      0.009652      0.090204
      4.44618      4.01759      6.13447        -0.128363     -0.306099     -0.018424
      6.41950      6.09175      6.13162        -0.067820      0.040531      0.027099
      6.91114      3.96284      8.24607        -0.007071      0.185845      0.236744
      9.18755      5.99369      8.02391        -0.087035      0.156301     -0.140404
      2.58417      5.98566      6.13027        -0.034642      0.118356     -0.018096
      4.41799      7.95943      6.15569        -0.015190      0.268537     -0.058396
      4.50119      6.04041      8.00212        -0.009005     -0.059720      0.025397
      6.83506      6.02575     10.21038         0.019380     -0.390989     -0.001055
      9.31941      8.02261     10.33314         0.141073     -0.026679      0.113589
 -----------------------------------------------------------------------------------
    total drift:                               -0.001856      0.006304      0.006920


--------------------------------------------------------------------------------------------------------



  FREE ENERGIE OF THE ION-ELECTRON SYSTEM (eV)
  ---------------------------------------------------
  free  energy   TOTEN  =      -212.87062915 eV

  energy  without entropy=     -212.87055073  energy(sigma->0) =     -212.87058994
 


--------------------------------------------------------------------------------------------------------


    POTLOK:  cpu time    0.5774: real time    0.5774


--------------------------------------------------------------------------------------------------------


     LOOP+:  cpu time  981.9919: real time  982.0949
    4ORBIT:  cpu time    0.0000: real time    0.0000
 


 total charge     
 
# of ion       s       p       d       tot
------------------------------------------
    1        2.024   0.062   0.000   2.085
    2        2.023   0.060   0.000   2.084
    3        2.023   0.061   0.000   2.084
    4        2.018   0.053   0.000   2.071
    5        2.022   0.058   0.000   2.079
    6        2.017   0.050   0.000   2.066
    7        2.020   0.057   0.000   2.077
    8        2.018   0.050   0.000   2.068
    9        2.021   0.058   0.000   2.080
   10        0.322   6.451   1.971   8.744
   11        0.326   6.463   1.990   8.779
   12        0.307   6.365   5.640  12.312
   13        0.308   6.384   5.661  12.353
   14        0.417   0.645   7.147   8.208
   15        0.277   6.230   8.747  15.254
   16        0.241   6.174   8.781  15.196
   17        0.221   6.170   8.779  15.170
   18        0.216   6.185   7.886  14.287
   19        1.567   3.422   0.000   4.989
   20        1.561   3.469   0.000   5.030
   21        1.552   3.496   0.000   5.048
   22        1.554   3.468   0.000   5.022
   23        1.557   3.442   0.000   4.999
   24        1.566   3.459   0.000   5.025
   25        1.560   3.470   0.000   5.030
   26        1.562   3.487   0.000   5.049
   27        1.557   3.454   0.000   5.011
   28        1.561   3.404   0.000   4.965
   29        1.566   3.411   0.000   4.978
   30        1.562   3.474   0.000   5.035
   31        1.558   3.449   0.000   5.006
   32        1.561   3.448   0.000   5.009
   33        1.563   3.454   0.000   5.017
   34        1.562   3.449   0.000   5.011
   35        1.562   3.462   0.000   5.023
   36        1.567   3.491   0.000   5.058
--------------------------------------------------
tot         48.918 113.783  56.601 219.302
 


 magnetization (x)
 
# of ion       s       p       d       tot
------------------------------------------
    1        0.000   0.000   0.000   0.000
    2        0.001   0.001   0.000   0.002
    3        0.000   0.001   0.000   0.001
    4        0.001   0.000   0.000   0.001
    5        0.000  -0.000   0.000  -0.000
    6        0.000   0.001   0.000   0.001
    7        0.000   0.000   0.000   0.001
    8        0.001   0.002   0.000   0.003
    9        0.001   0.001   0.000   0.002
   10        0.004   0.010   0.032   0.046
   11        0.001   0.003   0.013   0.017
   12        0.026   0.042   4.189   4.257
   13        0.021   0.032   4.206   4.259
   14        0.013   0.017   1.376   1.405
   15        0.002   0.001  -0.004  -0.000
   16        0.013   0.001   0.470   0.485
   17        0.007   0.003   0.559   0.569
   18        0.012   0.008   1.755   1.774
   19        0.006   0.132   0.000   0.138
   20        0.010   0.129   0.000   0.139
   21        0.014   0.195   0.000   0.209
   22        0.011   0.170   0.000   0.181
   23        0.000   0.013   0.000   0.013
   24        0.004   0.013   0.000   0.017
   25        0.011   0.150   0.000   0.161
   26        0.007   0.118   0.000   0.125
   27        0.005   0.012   0.000   0.017
   28        0.011   0.074   0.000   0.085
   29        0.005   0.104   0.000   0.109
   30        0.007   0.086   0.000   0.093
   31        0.011   0.225   0.000   0.236
   32        0.005   0.055   0.000   0.060
   33        0.008   0.052   0.000   0.060
   34        0.006   0.109   0.000   0.115
   35       -0.000   0.000   0.000   0.000
   36        0.000   0.011   0.000   0.011
--------------------------------------------------
tot          0.226   1.769  12.596  14.591
 

 total amount of memory used by VASP MPI-rank0   129324. kBytes
=======================================================================

   base      :      30000. kBytes
   nonlr-proj:       8766. kBytes
   fftplans  :       1994. kBytes
   grid      :       6265. kBytes
   one-center:        186. kBytes
   wavefun   :      82113. kBytes
 
  
  
 General timing and accounting informations for this job:
 ========================================================
  
                  Total CPU time used (sec):      999.299
                            User time (sec):      975.232
                          System time (sec):       24.067
                         Elapsed time (sec):      999.748
  
                   Maximum memory used (kb):      266556.
                   Average memory used (kb):           0.
  
                          Minor page faults:       128397
                          Major page faults:           16
                 Voluntary context switches:          530
