 vasp.6.1.2 22Jul20 (build Dec 05 2020 14:50:36) complex                        
  
 executed on         CrayXC-Intel date 2021.05.09  15:10:43
 running on   72 total cores
 distrk:  each k-point on   72 cores,    1 groups
 distr:  one band on NCORE=   6 cores,   12 groups


--------------------------------------------------------------------------------------------------------


 INCAR:
 POTCAR:    PAW_PBE Li_sv 10Sep2004               
 POTCAR:    PAW_PBE Ti_pv 07Sep2000               
 POTCAR:    PAW_PBE Fe_pv 02Aug2007               
 POTCAR:    PAW_PBE Co 02Aug2007                  
 POTCAR:    PAW_PBE Cu_pv 06Sep2000               
 POTCAR:    PAW_PBE Ni_pv 06Sep2000               
 POTCAR:    PAW_PBE O 08Apr2002                   
 POTCAR:    PAW_PBE Li_sv 10Sep2004               
   VRHFIN =Li: 1s2s2p                                                                               
   LEXCH  = PE                                                                                      
   EATOM  =   202.7858 eV,   14.9043 Ry                                                             
                                                                                                    
   TITEL  = PAW_PBE Li_sv 10Sep2004                                                                 
   LULTRA =        F    use ultrasoft PP ?                                                          
   IUNSCR =        0    unscreen: 0-lin 1-nonlin 2-no                                               
   RPACOR =    0.000    partial core radius                                                         
   POMASS =    7.010; ZVAL   =    3.000    mass and valenz                                          
   RCORE  =    1.700    outmost cutoff radius                                                       
   RWIGS  =    2.050; RWIGS  =    1.085    wigner-seitz radius (au A)                               
   ENMAX  =  499.034; ENMIN  =  374.276 eV                                                          
   ICORE  =        2    local potential                                                             
   LCOR   =        T    correct aug charges                                                         
   LPAW   =        T    paw PP                                                                      
   EAUG   =  628.945                                                                                
   RMAX   =    1.732    core radius for proj-oper                                                   
   RAUG   =    1.300    factor for augmentation sphere                                              
   RDEP   =    1.728    radius for radial grids                                                     
   RDEPT  =    1.329    core radius for aug-charge                                                  
                                                                                                    
   Atomic configuration                                                                             
    4 entries                                                                                       
     n  l   j            E        occ.                                                              
     1  0  0.50       -51.8549   2.0000                                                             
     2  0  0.50        -2.8742   1.0000                                                             
     2  1  0.50        -1.3606   0.0000                                                             
     3  2  1.50        -1.3606   0.0000                                                             
   Description                                                                                      
     l       E           TYP  RCUT    TYP  RCUT                                                     
     0    -51.8548813     23  1.400                                                                 
     0     -2.8742052     23  1.700                                                                 
     1     -1.3605826     23  1.400                                                                 
     2     -1.3605826     23  1.400                                                                 
  local pseudopotential read in
  atomic valenz-charges read in
  non local Contribution for L=           0  read in
    real space projection operators read in
  non local Contribution for L=           0  read in
    real space projection operators read in
  non local Contribution for L=           1  read in
    real space projection operators read in
    PAW grid and wavefunctions read in
 
   number of l-projection  operators is LMAX  =           3
   number of lm-projection operators is LMMAX =           5
 
 POTCAR:    PAW_PBE Ti_pv 07Sep2000               
   VRHFIN =Ti: d3 s1                                                                                
   LEXCH  = PE                                                                                      
   EATOM  =  1042.5995 eV,   76.6289 Ry                                                             
                                                                                                    
   TITEL  = PAW_PBE Ti_pv 07Sep2000                                                                 
   LULTRA =        F    use ultrasoft PP ?                                                          
   IUNSCR =        1    unscreen: 0-lin 1-nonlin 2-no                                               
   RPACOR =    2.200    partial core radius                                                         
   POMASS =   47.880; ZVAL   =   10.000    mass and valenz                                          
   RCORE  =    2.500    outmost cutoff radius                                                       
   RWIGS  =    2.500; RWIGS  =    1.323    wigner-seitz radius (au A)                               
   ENMAX  =  222.335; ENMIN  =  166.751 eV                                                          
   RCLOC  =    1.701    cutoff for local pot                                                        
   LCOR   =        T    correct aug charges                                                         
   LPAW   =        T    paw PP                                                                      
   EAUG   =  482.848                                                                                
   DEXC   =    0.000                                                                                
   RMAX   =    2.564    core radius for proj-oper                                                   
   RAUG   =    1.300    factor for augmentation sphere                                              
   RDEP   =    2.538    radius for radial grids                                                     
   RDEPT  =    1.952    core radius for aug-charge                                                  
                                                                                                    
   Atomic configuration                                                                             
    8 entries                                                                                       
     n  l   j            E        occ.                                                              
     1  0  0.50     -4865.3608   2.0000                                                             
     2  0  0.50      -533.1368   2.0000                                                             
     2  1  1.50      -440.5031   6.0000                                                             
     3  0  0.50       -59.3186   2.0000                                                             
     3  1  1.50       -35.7012   6.0000                                                             
     3  2  2.50        -1.9157   3.0000                                                             
     4  0  0.50        -3.7291   1.0000                                                             
     4  3  2.50        -1.3606   0.0000                                                             
   Description                                                                                      
     l       E           TYP  RCUT    TYP  RCUT                                                     
     1    -35.7012140     23  2.300                                                                 
     1     -1.3605826     23  2.300                                                                 
     2     -1.9156996     23  2.500                                                                 
     2     -0.4063033     23  2.500                                                                 
     0     -3.7290856     23  2.500                                                                 
     0     20.4087390     23  2.500                                                                 
  local pseudopotential read in
  partial core-charges read in
  partial kinetic energy density read in
  atomic valenz-charges read in
  non local Contribution for L=           1  read in
    real space projection operators read in
  non local Contribution for L=           1  read in
    real space projection operators read in
  non local Contribution for L=           2  read in
    real space projection operators read in
  non local Contribution for L=           2  read in
    real space projection operators read in
  non local Contribution for L=           0  read in
    real space projection operators read in
  non local Contribution for L=           0  read in
    real space projection operators read in
    PAW grid and wavefunctions read in
 
   number of l-projection  operators is LMAX  =           6
   number of lm-projection operators is LMMAX =          18
 
 POTCAR:    PAW_PBE Fe_pv 02Aug2007               
   VRHFIN =Fe:  3pd7s1                                                                              
   LEXCH  = PE                                                                                      
   EATOM  =  2457.4239 eV,  180.6156 Ry                                                             
                                                                                                    
   TITEL  = PAW_PBE Fe_pv 02Aug2007                                                                 
   LULTRA =        F    use ultrasoft PP ?                                                          
   IUNSCR =        1    unscreen: 0-lin 1-nonlin 2-no                                               
   RPACOR =    1.750    partial core radius                                                         
   POMASS =   55.847; ZVAL   =   14.000    mass and valenz                                          
   RCORE  =    2.200    outmost cutoff radius                                                       
   RWIGS  =    2.200; RWIGS  =    1.164    wigner-seitz radius (au A)                               
   ENMAX  =  293.238; ENMIN  =  219.928 eV                                                          
   ICORE  =        3    local potential                                                             
   LCOR   =        T    correct aug charges                                                         
   LPAW   =        T    paw PP                                                                      
   EAUG   =  578.342                                                                                
   DEXC   =    0.000                                                                                
   RMAX   =    2.249    core radius for proj-oper                                                   
   RAUG   =    1.300    factor for augmentation sphere                                              
   RDEP   =    2.296    radius for radial grids                                                     
   RDEPT  =    1.766    core radius for aug-charge                                                  
                                                                                                    
   Atomic configuration                                                                             
    8 entries                                                                                       
     n  l   j            E        occ.                                                              
     1  0  0.50     -6993.8440   2.0000                                                             
     2  0  0.50      -814.6047   2.0000                                                             
     2  1  1.50      -693.3689   6.0000                                                             
     3  0  0.50       -89.4732   2.0000                                                             
     3  1  1.50       -55.6373   6.0000                                                             
     3  2  2.50        -3.8151   7.0000                                                             
     4  0  0.50        -4.2551   1.0000                                                             
     4  3  2.50        -1.3606   0.0000                                                             
   Description                                                                                      
     l       E           TYP  RCUT    TYP  RCUT                                                     
     1    -55.6372668     23  2.000                                                                 
     1     -5.4423304     23  2.000                                                                 
     2     -3.8151096     23  2.200                                                                 
     2     -5.1756922     23  2.200                                                                 
     0     -4.2550951     23  2.200                                                                 
     0     27.2116520     23  2.200                                                                 
     3     -1.3605826     23  2.200                                                                 
  local pseudopotential read in
  partial core-charges read in
  partial kinetic energy density read in
  atomic valenz-charges read in
  non local Contribution for L=           1  read in
    real space projection operators read in
  non local Contribution for L=           1  read in
    real space projection operators read in
  non local Contribution for L=           2  read in
    real space projection operators read in
  non local Contribution for L=           2  read in
    real space projection operators read in
  non local Contribution for L=           0  read in
    real space projection operators read in
  non local Contribution for L=           0  read in
    real space projection operators read in
    PAW grid and wavefunctions read in
 
   number of l-projection  operators is LMAX  =           6
   number of lm-projection operators is LMMAX =          18
 
 POTCAR:    PAW_PBE Co 02Aug2007                  
   VRHFIN =Co: d8 s1                                                                                
   LEXCH  = PE                                                                                      
   EATOM  =   813.3670 eV,   59.7808 Ry                                                             
                                                                                                    
   TITEL  = PAW_PBE Co 02Aug2007                                                                    
   LULTRA =        F    use ultrasoft PP ?                                                          
   IUNSCR =        1    unscreen: 0-lin 1-nonlin 2-no                                               
   RPACOR =    2.000    partial core radius                                                         
   POMASS =   58.933; ZVAL   =    9.000    mass and valenz                                          
   RCORE  =    2.300    outmost cutoff radius                                                       
   RWIGS  =    2.460; RWIGS  =    1.302    wigner-seitz radius (au A)                               
   ENMAX  =  267.968; ENMIN  =  200.976 eV                                                          
   RCLOC  =    1.203    cutoff for local pot                                                        
   LCOR   =        T    correct aug charges                                                         
   LPAW   =        T    paw PP                                                                      
   EAUG   =  477.818                                                                                
   DEXC   =    0.000                                                                                
   RMAX   =    2.360    core radius for proj-oper                                                   
   RAUG   =    1.300    factor for augmentation sphere                                              
   RDEP   =    2.393    radius for radial grids                                                     
   RDEPT  =    1.864    core radius for aug-charge                                                  
                                                                                                    
   Atomic configuration                                                                             
    9 entries                                                                                       
     n  l   j            E        occ.                                                              
     1  0  0.50     -7587.6674   2.0000                                                             
     2  0  0.50      -893.6084   2.0000                                                             
     2  1  1.50      -764.5805   6.0000                                                             
     3  0  0.50       -97.5973   2.0000                                                             
     3  1  1.50       -60.9648   6.0000                                                             
     3  2  2.50        -4.2382   8.0000                                                             
     4  0  0.50        -4.3746   1.0000                                                             
     4  1  1.50        -4.0817   0.0000                                                             
     4  3  2.50        -1.3606   0.0000                                                             
   Description                                                                                      
     l       E           TYP  RCUT    TYP  RCUT                                                     
     2     -4.2382362     23  2.300                                                                 
     2     -5.5988188     23  2.300                                                                 
     0     -4.3745797     23  2.300                                                                 
     0      5.7660125     23  2.300                                                                 
     1     -2.7211652     23  2.300                                                                 
     1     16.9860234     23  2.300                                                                 
  local pseudopotential read in
  partial core-charges read in
  partial kinetic energy density read in
  atomic valenz-charges read in
  non local Contribution for L=           2  read in
    real space projection operators read in
  non local Contribution for L=           2  read in
    real space projection operators read in
  non local Contribution for L=           0  read in
    real space projection operators read in
  non local Contribution for L=           0  read in
    real space projection operators read in
  non local Contribution for L=           1  read in
    real space projection operators read in
  non local Contribution for L=           1  read in
    real space projection operators read in
    PAW grid and wavefunctions read in
 
   number of l-projection  operators is LMAX  =           6
   number of lm-projection operators is LMMAX =          18
 
 POTCAR:    PAW_PBE Cu_pv 06Sep2000               
   VRHFIN =Cu: d10 p1                                                                               
   LEXCH  = PE                                                                                      
   EATOM  =  4120.1201 eV,  302.8203 Ry                                                             
                                                                                                    
   TITEL  = PAW_PBE Cu_pv 06Sep2000                                                                 
   LULTRA =        F    use ultrasoft PP ?                                                          
   IUNSCR =        1    unscreen: 0-lin 1-nonlin 2-no                                               
   RPACOR =    1.500    partial core radius                                                         
   POMASS =   63.546; ZVAL   =   17.000    mass and valenz                                          
   RCORE  =    2.000    outmost cutoff radius                                                       
   RWIGS  =    2.000; RWIGS  =    1.058    wigner-seitz radius (au A)                               
   ENMAX  =  368.648; ENMIN  =  276.486 eV                                                          
   RCLOC  =    1.304    cutoff for local pot                                                        
   LCOR   =        T    correct aug charges                                                         
   LPAW   =        T    paw PP                                                                      
   EAUG   =  758.233                                                                                
   DEXC   =    0.000                                                                                
   RMAX   =    2.046    core radius for proj-oper                                                   
   RAUG   =    1.300    factor for augmentation sphere                                              
   RDEP   =    2.025    radius for radial grids                                                     
   RDEPT  =    1.558    core radius for aug-charge                                                  
                                                                                                    
   Atomic configuration                                                                             
    8 entries                                                                                       
     n  l   j            E        occ.                                                              
     1  0  0.50     -8850.2467   2.0000                                                             
     2  0  0.50     -1062.3498   2.0000                                                             
     2  1  1.50      -916.8226   6.0000                                                             
     3  0  0.50      -114.6929   2.0000                                                             
     3  1  1.50       -72.1325   6.0000                                                             
     3  2  2.50        -5.0394  10.0000                                                             
     4  0  0.50        -4.6097   1.0000                                                             
     4  3  2.50        -1.3606   0.0000                                                             
   Description                                                                                      
     l       E           TYP  RCUT    TYP  RCUT                                                     
     1    -72.1324777     23  1.700                                                                 
     1     -1.3605826     23  1.700                                                                 
     2     -5.0393776     23  2.000                                                                 
     2     -6.3999602     23  2.000                                                                 
     0     -4.6097062     23  1.800                                                                 
     0     14.1620818     23  1.800                                                                 
  local pseudopotential read in
  partial core-charges read in
  partial kinetic energy density read in
  atomic valenz-charges read in
  non local Contribution for L=           1  read in
    real space projection operators read in
  non local Contribution for L=           1  read in
    real space projection operators read in
  non local Contribution for L=           2  read in
    real space projection operators read in
  non local Contribution for L=           2  read in
    real space projection operators read in
  non local Contribution for L=           0  read in
    real space projection operators read in
  non local Contribution for L=           0  read in
    real space projection operators read in
    PAW grid and wavefunctions read in
 
   number of l-projection  operators is LMAX  =           6
   number of lm-projection operators is LMMAX =          18
 
 POTCAR:    PAW_PBE Ni_pv 06Sep2000               
   VRHFIN =Ni:                                                                                      
   LEXCH  = PE                                                                                      
   EATOM  =  3501.1230 eV,  257.3253 Ry                                                             
                                                                                                    
   TITEL  = PAW_PBE Ni_pv 06Sep2000                                                                 
   LULTRA =        F    use ultrasoft PP ?                                                          
   IUNSCR =        1    unscreen: 0-lin 1-nonlin 2-no                                               
   RPACOR =    1.500    partial core radius                                                         
   POMASS =   58.690; ZVAL   =   16.000    mass and valenz                                          
   RCORE  =    2.000    outmost cutoff radius                                                       
   RWIGS  =    2.000; RWIGS  =    1.058    wigner-seitz radius (au A)                               
   ENMAX  =  367.986; ENMIN  =  275.989 eV                                                          
   RCLOC  =    1.301    cutoff for local pot                                                        
   LCOR   =        T    correct aug charges                                                         
   LPAW   =        T    paw PP                                                                      
   EAUG   =  703.443                                                                                
   DEXC   =    0.000                                                                                
   RMAX   =    2.041    core radius for proj-oper                                                   
   RAUG   =    1.300    factor for augmentation sphere                                              
   RDEP   =    2.103    radius for radial grids                                                     
   RDEPT  =    1.618    core radius for aug-charge                                                  
                                                                                                    
   Atomic configuration                                                                             
    8 entries                                                                                       
     n  l   j            E        occ.                                                              
     1  0  0.50     -8206.4253   2.0000                                                             
     2  0  0.50      -976.1748   2.0000                                                             
     2  1  1.50      -839.0571   6.0000                                                             
     3  0  0.50      -105.9991   2.0000                                                             
     3  1  1.50       -66.4603   6.0000                                                             
     3  2  2.50        -4.6458   9.0000                                                             
     4  0  0.50        -4.4926   1.0000                                                             
     4  3  2.50        -1.3606   0.0000                                                             
   Description                                                                                      
     l       E           TYP  RCUT    TYP  RCUT                                                     
     1    -66.4602962     23  1.700                                                                 
     1     -1.3605826     23  1.700                                                                 
     2     -4.6457867     23  2.000                                                                 
     2     -6.0063693     23  2.000                                                                 
     0     -4.4925576     23  1.900                                                                 
     0     16.3626226     23  1.900                                                                 
  local pseudopotential read in
  partial core-charges read in
  partial kinetic energy density read in
  atomic valenz-charges read in
  non local Contribution for L=           1  read in
    real space projection operators read in
  non local Contribution for L=           1  read in
    real space projection operators read in
  non local Contribution for L=           2  read in
    real space projection operators read in
  non local Contribution for L=           2  read in
    real space projection operators read in
  non local Contribution for L=           0  read in
    real space projection operators read in
  non local Contribution for L=           0  read in
    real space projection operators read in
    PAW grid and wavefunctions read in
 
   number of l-projection  operators is LMAX  =           6
   number of lm-projection operators is LMMAX =          18
 
 POTCAR:    PAW_PBE O 08Apr2002                   
   VRHFIN =O: s2p4                                                                                  
   LEXCH  = PE                                                                                      
   EATOM  =   432.3788 eV,   31.7789 Ry                                                             
                                                                                                    
   TITEL  = PAW_PBE O 08Apr2002                                                                     
   LULTRA =        F    use ultrasoft PP ?                                                          
   IUNSCR =        1    unscreen: 0-lin 1-nonlin 2-no                                               
   RPACOR =    1.200    partial core radius                                                         
   POMASS =   16.000; ZVAL   =    6.000    mass and valenz                                          
   RCORE  =    1.520    outmost cutoff radius                                                       
   RWIGS  =    1.550; RWIGS  =    0.820    wigner-seitz radius (au A)                               
   ENMAX  =  400.000; ENMIN  =  300.000 eV                                                          
   ICORE  =        2    local potential                                                             
   LCOR   =        T    correct aug charges                                                         
   LPAW   =        T    paw PP                                                                      
   EAUG   =  605.392                                                                                
   DEXC   =    0.000                                                                                
   RMAX   =    1.553    core radius for proj-oper                                                   
   RAUG   =    1.300    factor for augmentation sphere                                              
   RDEP   =    1.550    radius for radial grids                                                     
   RDEPT  =    1.329    core radius for aug-charge                                                  
                                                                                                    
   Atomic configuration                                                                             
    4 entries                                                                                       
     n  l   j            E        occ.                                                              
     1  0  0.50      -514.6923   2.0000                                                             
     2  0  0.50       -23.9615   2.0000                                                             
     2  1  0.50        -9.0305   4.0000                                                             
     3  2  1.50        -9.5241   0.0000                                                             
   Description                                                                                      
     l       E           TYP  RCUT    TYP  RCUT                                                     
     0    -23.9615318     23  1.200                                                                 
     0     -9.5240782     23  1.200                                                                 
     1     -9.0304911     23  1.520                                                                 
     1      8.1634956     23  1.520                                                                 
     2     -9.5240782      7  1.500                                                                 
  local pseudopotential read in
  partial core-charges read in
  partial kinetic energy density read in
  kinetic energy density of atom read in
  atomic valenz-charges read in
  non local Contribution for L=           0  read in
    real space projection operators read in
  non local Contribution for L=           0  read in
    real space projection operators read in
  non local Contribution for L=           1  read in
    real space projection operators read in
  non local Contribution for L=           1  read in
    real space projection operators read in
    PAW grid and wavefunctions read in
 
   number of l-projection  operators is LMAX  =           4
   number of lm-projection operators is LMMAX =           8
 
 Optimization of the real space projectors (new method)

 maximal supplied QI-value         = 22.11
 optimisation between [QCUT,QGAM] = [ 11.50, 23.22] = [ 37.02,150.92] Ry 
 Optimized for a Real-space Cutoff    1.08 Angstroem

   l    n(q)    QCUT    max X(q) W(low)/X(q) W(high)/X(q)  e(spline) 
   0      7    11.497    10.506    0.36E-04    0.62E-04    0.14E-07
   0      7    11.497     8.367    0.65E-04    0.14E-03    0.28E-07
   1      7    11.497     8.983    0.21E-03    0.43E-03    0.90E-07
 Optimization of the real space projectors (new method)

 maximal supplied QI-value         = 15.12
 optimisation between [QCUT,QGAM] = [ 11.64, 23.28] = [ 37.95,151.78] Ry 
 Optimized for a Real-space Cutoff    1.49 Angstroem

   l    n(q)    QCUT    max X(q) W(low)/X(q) W(high)/X(q)  e(spline) 
   1     10    11.641     4.216    0.17E-04    0.40E-04    0.50E-07
   1     10    11.641     5.422    0.66E-04    0.10E-03    0.13E-06
   2      9    11.641    72.084    0.68E-04    0.13E-03    0.50E-06
   2      9    11.641    65.965    0.66E-04    0.13E-03    0.50E-06
   0     10    11.641    41.531    0.10E-03    0.87E-04    0.31E-06
   0     10    11.641    16.290    0.75E-04    0.66E-04    0.24E-06
 Optimization of the real space projectors (new method)

 maximal supplied QI-value         = 17.01
 optimisation between [QCUT,QGAM] = [ 11.57, 23.30] = [ 37.45,152.03] Ry 
 Optimized for a Real-space Cutoff    1.45 Angstroem

   l    n(q)    QCUT    max X(q) W(low)/X(q) W(high)/X(q)  e(spline) 
   1     10    11.565     4.267    0.91E-04    0.15E-03    0.13E-06
   1     10    11.565     5.750    0.14E-03    0.22E-03    0.20E-06
   2      9    11.565    53.656    0.13E-03    0.57E-04    0.16E-06
   2      9    11.565    49.521    0.13E-03    0.59E-04    0.16E-06
   0     10    11.565    31.246    0.61E-04    0.74E-05    0.89E-07
   0     10    11.565    12.201    0.44E-04    0.68E-05    0.74E-07
 Optimization of the real space projectors (new method)

 maximal supplied QI-value         = 16.25
 optimisation between [QCUT,QGAM] = [ 11.54, 23.24] = [ 37.28,151.24] Ry 
 Optimized for a Real-space Cutoff    1.45 Angstroem

   l    n(q)    QCUT    max X(q) W(low)/X(q) W(high)/X(q)  e(spline) 
   2      9    11.539    65.824    0.19E-03    0.47E-04    0.16E-06
   2      9    11.539    61.429    0.20E-03    0.48E-04    0.16E-06
   0     10    11.539    56.174    0.76E-04    0.45E-04    0.23E-06
   0     10    11.539    31.263    0.69E-04    0.41E-04    0.21E-06
   1     10    11.539    19.828    0.78E-04    0.14E-03    0.70E-07
   1     10    11.539    15.139    0.65E-04    0.12E-03    0.64E-07
 Optimization of the real space projectors (new method)

 maximal supplied QI-value         = 18.90
 optimisation between [QCUT,QGAM] = [ 11.53, 23.24] = [ 37.21,151.29] Ry 
 Optimized for a Real-space Cutoff    1.36 Angstroem

   l    n(q)    QCUT    max X(q) W(low)/X(q) W(high)/X(q)  e(spline) 
   1      9    11.527     3.172    0.21E-04    0.38E-04    0.11E-06
   1      9    11.527     4.083    0.67E-04    0.79E-04    0.20E-06
   2      9    11.527    65.342    0.13E-03    0.28E-03    0.26E-06
   2      9    11.527    61.381    0.13E-03    0.29E-03    0.26E-06
   0      9    11.527    65.742    0.32E-04    0.21E-04    0.72E-07
   0      9    11.527    30.431    0.28E-04    0.19E-04    0.65E-07
 Optimization of the real space projectors (new method)

 maximal supplied QI-value         = 18.90
 optimisation between [QCUT,QGAM] = [ 11.53, 23.24] = [ 37.21,151.29] Ry 
 Optimized for a Real-space Cutoff    1.36 Angstroem

   l    n(q)    QCUT    max X(q) W(low)/X(q) W(high)/X(q)  e(spline) 
   1      9    11.527     2.836    0.16E-04    0.30E-04    0.95E-07
   1      9    11.527     4.023    0.73E-04    0.81E-04    0.21E-06
   2      9    11.527    73.368    0.15E-03    0.29E-03    0.28E-06
   2      9    11.527    69.010    0.15E-03    0.29E-03    0.29E-06
   0      9    11.527    54.797    0.43E-04    0.28E-04    0.85E-07
   0      9    11.527    24.266    0.33E-04    0.24E-04    0.75E-07
 Optimization of the real space projectors (new method)

 maximal supplied QI-value         = 24.76
 optimisation between [QCUT,QGAM] = [ 11.64, 23.27] = [ 37.91,151.63] Ry 
 Optimized for a Real-space Cutoff    1.14 Angstroem

   l    n(q)    QCUT    max X(q) W(low)/X(q) W(high)/X(q)  e(spline) 
   0      8    11.635    20.381    0.10E-03    0.33E-03    0.24E-06
   0      8    11.635    15.268    0.11E-03    0.35E-03    0.26E-06
   1      7    11.635     5.964    0.24E-03    0.31E-03    0.30E-06
   1      7    11.635     5.382    0.22E-03    0.25E-03    0.26E-06
  PAW_PBE Li_sv 10Sep2004               :
 energy of atom  1       EATOM= -202.7858
 kinetic energy error for atom=    0.0130 (will be added to EATOM!!)
  PAW_PBE Ti_pv 07Sep2000               :
 energy of atom  2       EATOM=-1042.5995
 kinetic energy error for atom=    0.0019 (will be added to EATOM!!)
  PAW_PBE Fe_pv 02Aug2007               :
 energy of atom  3       EATOM=-2457.4239
 kinetic energy error for atom=    0.0062 (will be added to EATOM!!)
  PAW_PBE Co 02Aug2007                  :
 energy of atom  4       EATOM= -813.3670
 kinetic energy error for atom=    0.0028 (will be added to EATOM!!)
  PAW_PBE Cu_pv 06Sep2000               :
 energy of atom  5       EATOM=-4120.1201
 kinetic energy error for atom=    0.0541 (will be added to EATOM!!)
  PAW_PBE Ni_pv 06Sep2000               :
 energy of atom  6       EATOM=-3501.1230
 kinetic energy error for atom=    0.0575 (will be added to EATOM!!)
  PAW_PBE O 08Apr2002                   :
 energy of atom  7       EATOM= -432.3788
 kinetic energy error for atom=    0.0208 (will be added to EATOM!!)
 
 
 POSCAR: Li9 Ti2 Fe2 Co1 Cu1 Ni3 O18
  positions in direct lattice
  No initial velocities read in
 exchange correlation table for  LEXCH =        8
   RHO(1)=    0.500       N(1)  =     2000
   RHO(2)=  100.500       N(2)  =     4000
 


--------------------------------------------------------------------------------------------------------


 ion  position               nearest neighbor table
   1  0.983  0.020  0.505-  19 1.93  32 1.98  20 2.04  36 2.14  11 2.88
   2  0.987  0.330  0.011-  21 2.04  32 2.04  33 2.06  34 2.09  23 2.21  20 2.22  11 2.87
   3  0.002  0.312  0.511-  19 1.94  20 2.04  21 2.15
   4  0.334  0.002  0.496-  20 2.03  26 2.04  21 2.06  25 2.19  31 2.20  30 2.21  11 2.82
   5  0.350  0.326  1.000-  27 2.03  29 2.04  26 2.05  22 2.06  20 2.19  23 2.28  11 2.83  14 2.83

   6  0.339  0.663  0.506-  29 2.01  25 2.04  28 2.06  23 2.09  30 2.10  24 2.28  14 2.82
   7  0.669  0.012  0.005-  26 2.02  19 2.04  36 2.13  35 2.13  30 2.18  27 2.27
   8  0.673  0.326  0.998-  19 1.95  28 2.11  26 2.12  34 2.14  32 2.14  29 2.20
   9  0.664  0.662  0.508-  33 2.01  31 2.02  29 2.04  34 2.11  35 2.19  14 2.80
  10  0.001  0.664  0.991-  23 1.93  33 1.95  36 1.99  25 2.02  35 2.03  22 2.10  13 2.97  14 3.00

  11  0.320  0.011  0.022-  20 1.79  30 1.99  27 1.99  24 2.03  21 2.03  31 2.20   4 2.82   5 2.83
                             2 2.87   1 2.88  14 3.07
  12  0.334  0.327  0.495-  26 1.89  21 2.01  27 2.02  28 2.12  23 2.14  22 2.15
  13  0.666  0.663  0.997-  34 1.81  30 1.90  33 2.03  31 2.03  28 2.08  36 2.10  14 2.92  10 2.97

  14  0.343  0.660  0.985-  29 1.86  28 1.87  25 1.95  24 1.95  31 1.97  22 1.99   9 2.80   6 2.82
                             5 2.83  13 2.92  10 3.00  11 3.07
  15  0.687  0.317  0.528-  19 1.92  32 1.97  29 2.11  33 2.22
  16  0.994  0.013  0.994-  19 2.00  35 2.08  32 2.08  21 2.10  25 2.10  24 2.10
  17  0.668  0.005  0.482-  32 2.00  26 2.02  27 2.06  35 2.06  31 2.23
  18  0.001  0.669  0.495-  36 2.04  22 2.05  35 2.06  23 2.08  34 2.09  24 2.15
  19  0.838  0.168  0.756-  15 1.92   1 1.93   3 1.94   8 1.95  16 2.00   7 2.04
  20  0.176  0.150  0.253-  11 1.79   4 2.03   1 2.04   3 2.04   5 2.19   2 2.22
  21  0.175  0.165  0.758-  12 2.01  11 2.03   2 2.04   4 2.06  16 2.10   3 2.15
  22  0.174  0.511  0.228-  14 1.99  18 2.05   5 2.06  10 2.10  12 2.15
  23  0.160  0.510  0.747-  10 1.93  18 2.08   6 2.09  12 2.14   2 2.21   5 2.28
  24  0.180  0.831  0.208-  14 1.95  11 2.03  16 2.10  18 2.15   6 2.28
  25  0.173  0.814  0.780-  14 1.95  10 2.02   6 2.04  16 2.10   4 2.19
  26  0.494  0.168  0.267-  12 1.89  17 2.02   7 2.02   4 2.04   5 2.05   8 2.12
  27  0.483  0.163  0.749-  11 1.99  12 2.02   5 2.03  17 2.06   7 2.27
  28  0.479  0.519  0.222-  14 1.87   6 2.06  13 2.08   8 2.11  12 2.12
  29  0.491  0.510  0.752-  14 1.86   6 2.01   9 2.04   5 2.04  15 2.11   8 2.20
  30  0.503  0.832  0.210-  13 1.90  11 1.99   6 2.10   7 2.18   4 2.21
  31  0.498  0.819  0.769-  14 1.97   9 2.02  13 2.03   4 2.20  11 2.20  17 2.23
  32  0.825  0.166  0.274-  15 1.97   1 1.98  17 2.00   2 2.04  16 2.08   8 2.14
  33  0.831  0.523  0.226-  10 1.95   9 2.01  13 2.03   2 2.06  15 2.22
  34  0.820  0.518  0.769-  13 1.81  18 2.09   2 2.09   9 2.11   8 2.14
  35  0.847  0.829  0.241-  10 2.03  18 2.06  17 2.06  16 2.08   7 2.13   9 2.19
  36  0.839  0.824  0.763-  10 1.99  18 2.04  13 2.10   7 2.13   1 2.14
 

IMPORTANT INFORMATION: All symmetrisations will be switched off!
NOSYMM: (Re-)initialisation of all symmetry stuff for point group C_1.


----------------------------------------------------------------------------------------

                                     Primitive cell                                     

  volume of cell :     323.0522

  direct lattice vectors                    reciprocal lattice vectors
    -0.007025000  6.331204000  6.244012000    -0.081906787  0.079107730  0.079848890
     6.079857000 -0.005863000  6.242358000     0.082369207 -0.078705260  0.079896980
     4.072072000  4.238831000 -0.022467000     0.122451569  0.117648327 -0.119153412

  length of vectors
     8.892237024  8.713881392  5.877921689     0.139077676  0.139150033  0.207444092

  position of ions in fractional coordinates (direct lattice)
     0.983292000  0.020213000  0.504501000
     0.987325000  0.329738000  0.010909000
     0.002473000  0.311903000  0.511412000
     0.333872000  0.002164000  0.496129000
     0.349736000  0.326290000  0.999584000
     0.338914000  0.663390000  0.506004000
     0.668674000  0.011654000  0.004747000
     0.672665000  0.326101000  0.998356000
     0.664058000  0.661593000  0.507579000
     0.001294000  0.663522000  0.991357000
     0.319548000  0.011108000  0.021573000
     0.334235000  0.326869000  0.494897000
     0.665666000  0.662836000  0.996712000
     0.342742000  0.659767000  0.984643000
     0.686754000  0.317060000  0.528198000
     0.993710000  0.012925000  0.994262000
     0.668063000  0.004951000  0.482202000
     0.001005000  0.668861000  0.494555000
     0.837809000  0.167874000  0.755901000
     0.176200000  0.149655000  0.252665000
     0.175459000  0.165016000  0.758416000
     0.173734000  0.511040000  0.228350000
     0.159670000  0.509739000  0.747090000
     0.180424000  0.830988000  0.208116000
     0.173249000  0.813542000  0.780239000
     0.493514000  0.167996000  0.267234000
     0.483120000  0.163109000  0.748754000
     0.478606000  0.519262000  0.222344000
     0.490764000  0.510104000  0.752262000
     0.503011000  0.831779000  0.210071000
     0.497754000  0.819162000  0.768599000
     0.824828000  0.166182000  0.274015000
     0.831136000  0.522535000  0.226170000
     0.820450000  0.517641000  0.768706000
     0.846764000  0.829149000  0.240599000
     0.839482000  0.824280000  0.762849000

  ion indices of the primitive-cell ions
   primitive index   ion index
                 1           1
                 2           2
                 3           3
                 4           4
                 5           5
                 6           6
                 7           7
                 8           8
                 9           9
                10          10
                11          11
                12          12
                13          13
                14          14
                15          15
                16          16
                17          17
                18          18
                19          19
                20          20
                21          21
                22          22
                23          23
                24          24
                25          25
                26          26
                27          27
                28          28
                29          29
                30          30
                31          31
                32          32
                33          33
                34          34
                35          35
                36          36

----------------------------------------------------------------------------------------

 
 
 KPOINTS: pymatgen v2021.2.14 with grid density = 

Automatic generation of k-mesh.
Space group operators:
 irot       det(A)        alpha          n_x          n_y          n_z        tau_x        tau_y        tau_z
    1     1.000000     0.000000     1.000000     0.000000     0.000000     0.000000     0.000000     0.000000
 
 Subroutine IBZKPT returns following result:
 ===========================================
 
 Found     36 irreducible k-points:
 
 Following reciprocal coordinates:
            Coordinates               Weight
  0.000000  0.000000  0.000000      1.000000
  0.250000 -0.000000  0.000000      2.000000
  0.500000 -0.000000  0.000000      1.000000
  0.000000  0.250000  0.000000      2.000000
  0.250000  0.250000  0.000000      2.000000
  0.500000  0.250000  0.000000      2.000000
 -0.250000  0.250000  0.000000      2.000000
  0.000000  0.500000  0.000000      1.000000
  0.250000  0.500000  0.000000      2.000000
  0.500000  0.500000  0.000000      1.000000
 -0.000000 -0.000000  0.250000      2.000000
  0.250000 -0.000000  0.250000      2.000000
  0.500000  0.000000  0.250000      2.000000
 -0.250000 -0.000000  0.250000      2.000000
  0.000000  0.250000  0.250000      2.000000
  0.250000  0.250000  0.250000      2.000000
  0.500000  0.250000  0.250000      2.000000
 -0.250000  0.250000  0.250000      2.000000
 -0.000000  0.500000  0.250000      2.000000
  0.250000  0.500000  0.250000      2.000000
  0.500000  0.500000  0.250000      2.000000
 -0.250000  0.500000  0.250000      2.000000
  0.000000 -0.250000  0.250000      2.000000
  0.250000 -0.250000  0.250000      2.000000
  0.500000 -0.250000  0.250000      2.000000
 -0.250000 -0.250000  0.250000      2.000000
 -0.000000 -0.000000  0.500000      1.000000
  0.250000  0.000000  0.500000      2.000000
  0.500000 -0.000000  0.500000      1.000000
 -0.000000  0.250000  0.500000      2.000000
  0.250000  0.250000  0.500000      2.000000
  0.500000  0.250000  0.500000      2.000000
 -0.250000  0.250000  0.500000      2.000000
  0.000000  0.500000  0.500000      1.000000
  0.250000  0.500000  0.500000      2.000000
  0.500000  0.500000  0.500000      1.000000
 
 Following cartesian coordinates:
            Coordinates               Weight
  0.000000  0.000000  0.000000      1.000000
 -0.020477  0.019777  0.019962      2.000000
 -0.040953  0.039554  0.039924      1.000000
  0.020592 -0.019676  0.019974      2.000000
  0.000116  0.000101  0.039936      2.000000
 -0.020361  0.019878  0.059899      2.000000
  0.041069 -0.039453  0.000012      2.000000
  0.041185 -0.039353  0.039948      1.000000
  0.020708 -0.019576  0.059911      2.000000
  0.000231  0.000201  0.079873      1.000000
  0.030613  0.029412 -0.029788      2.000000
  0.010136  0.049189 -0.009826      2.000000
 -0.010341  0.068966  0.010136      2.000000
  0.051090  0.009635 -0.049751      2.000000
  0.051205  0.009736 -0.009814      2.000000
  0.030728  0.029513  0.010148      2.000000
  0.010252  0.049290  0.030110      2.000000
  0.071682 -0.010041 -0.029776      2.000000
  0.071797 -0.009941  0.010160      2.000000
  0.051321  0.009836  0.030122      2.000000
  0.030844  0.029613  0.050085      2.000000
  0.092274 -0.029717 -0.009802      2.000000
  0.010021  0.049088 -0.049763      2.000000
 -0.010456  0.068865 -0.029800      2.000000
 -0.030933  0.088642 -0.009838      2.000000
  0.030497  0.029311 -0.069725      2.000000
  0.061226  0.058824 -0.059577      1.000000
  0.040749  0.078601 -0.039614      2.000000
  0.020272  0.098378 -0.019652      1.000000
  0.081818  0.039148 -0.039602      2.000000
  0.061341  0.058925 -0.019640      2.000000
  0.040865  0.078702  0.000322      2.000000
  0.102295  0.019371 -0.059565      2.000000
  0.102410  0.019472 -0.019628      1.000000
  0.081934  0.039248  0.000334      2.000000
  0.061457  0.059025  0.020296      1.000000
 


--------------------------------------------------------------------------------------------------------




 Dimension of arrays:
   k-points           NKPTS =     36   k-points in BZ     NKDIM =     36   number of bands    NBANDS=    180
   number of dos      NEDOS =    301   number of ions     NIONS =     36
   non local maximal  LDIM  =      6   non local SUM 2l+1 LMDIM =     18
   total plane-waves  NPLWV = 235200
   max r-space proj   IRMAX =  10120   max aug-charges    IRDMAX=  28910
   dimension x,y,z NGX =    70 NGY =   70 NGZ =   48
   dimension x,y,z NGXF=   140 NGYF=  140 NGZF=   96
   support grid    NGXF=   140 NGYF=  140 NGZF=   96
   ions per type =               9   2   2   1   1   3  18
   NGX,Y,Z   is equivalent  to a cutoff of  13.09, 13.35, 13.58 a.u.
   NGXF,Y,Z  is equivalent  to a cutoff of  26.17, 26.71, 27.15 a.u.

 SYSTEM =  unknown system                          
 POSCAR =  Li9 Ti2 Fe2 Co1 Cu1 Ni3 O18             

 Startparameter for this run:
   NWRITE =      2    write-flag & timer
   PREC   = accura    normal or accurate (medium, high low for compatibility)
   ISTART =      0    job   : 0-new  1-cont  2-samecut
   ICHARG =      2    charge: 1-file 2-atom 10-const
   ISPIN  =      2    spin polarized calculation?
   LNONCOLLINEAR =      F non collinear calculations
   LSORBIT =      F    spin-orbit coupling
   INIWAV =      1    electr: 0-lowe 1-rand  2-diag
   LASPH  =      T    aspherical Exc in radial PAW
   METAGGA=      F    non-selfconsistent MetaGGA calc.

 Electronic Relaxation 1
   ENCUT  =  520.0 eV  38.22 Ry    6.18 a.u.  16.53 16.20 10.93*2*pi/ulx,y,z
   ENINI  =  520.0     initial cutoff
   ENAUG  =  758.2 eV  augmentation charge cutoff
   NELM   =    100;   NELMIN=  2; NELMDL=  0     # of ELM steps 
   EDIFF  = 0.1E-04   stopping-criterion for ELM
   LREAL  =      T    real-space projection
   NLSPLINE    = F    spline interpolate recip. space projectors
   LCOMPAT=      F    compatible to vasp.4.4
   GGA_COMPAT  = T    GGA compatible to vasp.4.4-vasp.4.6
   LMAXPAW     = -100 max onsite density
   LMAXMIX     =    4 max onsite mixed and CHGCAR
   VOSKOWN=      0    Vosko Wilk Nusair interpolation
   ROPT   =   -0.00025  -0.00025  -0.00025  -0.00025
   ROPT   =   -0.00025  -0.00025  -0.00025
 Ionic relaxation
   EDIFFG = 0.1E-03   stopping-criterion for IOM
   NSW    =      0    number of steps for IOM
   NBLOCK =      1;   KBLOCK =      1    inner block; outer block 
   IBRION =     -1    ionic relax: 0-MD 1-quasi-New 2-CG
   NFREE  =      0    steps in history (QN), initial steepest desc. (CG)
   ISIF   =      2    stress and relaxation
   IWAVPR =     10    prediction:  0-non 1-charg 2-wave 3-comb
   ISYM   =      0    0-nonsym 1-usesym 2-fastsym
   LCORR  =      T    Harris-Foulkes like correction to forces

   POTIM  = 0.5000    time-step for ionic-motion
   TEIN   =    0.0    initial temperature
   TEBEG  =    0.0;   TEEND  =   0.0 temperature during run
   SMASS  =  -3.00    Nose mass-parameter (am)
   estimated Nose-frequenzy (Omega)   =  0.10E-29 period in steps = 0.13E+47 mass=  -0.181E-26a.u.
   SCALEE = 1.0000    scale energy and forces
   NPACO  =    256;   APACO  = 16.0  distance and # of slots for P.C.
   PSTRESS=    0.0 pullay stress

  Mass of Ions in am
   POMASS =   7.01 47.88 55.85 58.93 63.55 58.69 16.00
  Ionic Valenz
   ZVAL   =   3.00 10.00 14.00  9.00 17.00 16.00  6.00
  Atomic Wigner-Seitz radii
   RWIGS  =  -1.00 -1.00 -1.00 -1.00 -1.00 -1.00 -1.00
  virtual crystal weights 
   VCA    =   1.00  1.00  1.00  1.00  1.00  1.00  1.00
   NELECT =     257.0000    total number of electrons
   NUPDOWN=      -1.0000    fix difference up-down

 DOS related values:
   EMIN   =  10.00;   EMAX   =-10.00  energy-range for DOS
   EFERMI =   0.00
   ISMEAR =     0;   SIGMA  =   0.05  broadening in eV -4-tet -1-fermi 0-gaus

 Electronic relaxation 2 (details)
   IALGO  =     58    algorithm
   LDIAG  =      T    sub-space diagonalisation (order eigenvalues)
   LSUBROT=      F    optimize rotation matrix (better conditioning)
   TURBO    =      0    0=normal 1=particle mesh
   IRESTART =      0    0=no restart 2=restart with 2 vectors
   NREBOOT  =      0    no. of reboots
   NMIN     =      0    reboot dimension
   EREF     =   0.00    reference energy to select bands
   IMIX   =      4    mixing-type and parameters
     AMIX     =   0.40;   BMIX     =  1.00
     AMIX_MAG =   1.60;   BMIX_MAG =  1.00
     AMIN     =   0.10
     WC   =   100.;   INIMIX=   1;  MIXPRE=   1;  MAXMIX= -45

 Intra band minimization:
   WEIMIN = 0.0000     energy-eigenvalue tresh-hold
   EBREAK =  0.14E-07  absolut break condition
   DEPER  =   0.30     relativ break condition  

   TIME   =   0.40     timestep for ELM

  volume/ion in A,a.u.               =       8.97        60.56
  Fermi-wavevector in a.u.,A,eV,Ry     =   1.516916  2.866556 31.307485  2.301035
  Thomas-Fermi vector in A             =   2.626242
 
 Write flags
   LWAVE        =      F    write WAVECAR
   LDOWNSAMPLE  =      F    k-point downsampling of WAVECAR
   LCHARG       =      T    write CHGCAR
   LVTOT        =      F    write LOCPOT, total local potential
   LVHAR        =      F    write LOCPOT, Hartree potential only
   LELF         =      F    write electronic localiz. function (ELF)
   LORBIT       =     11    0 simple, 1 ext, 2 COOP (PROOUT), +10 PAW based schemes


 Dipole corrections
   LMONO  =      F    monopole corrections only (constant potential shift)
   LDIPOL =      F    correct potential (dipole corrections)
   IDIPOL =      0    1-x, 2-y, 3-z, 4-all directions 
   EPSILON=  1.0000000 bulk dielectric constant

 LDA+U is selected, type is set to LDAUTYPE =  2
   angular momentum for each species LDAUL =     0    0    2    2    0    2    0
   U (eV)           for each species LDAUU =   0.0  0.0  5.3  3.3  0.0  6.2  0.0
   J (eV)           for each species LDAUJ =   0.0  0.0  0.0  0.0  0.0  0.0  0.0
 Exchange correlation treatment:
   GGA     =    --    GGA type
   LEXCH   =     8    internal setting for exchange type
   VOSKOWN=      0    Vosko Wilk Nusair interpolation
   LHFCALC =     F    Hartree Fock is set to
   LHFONE  =     F    Hartree Fock one center treatment
   AEXX    =    0.0000 exact exchange contribution

 Linear response parameters
   LEPSILON=     F    determine dielectric tensor
   LRPA    =     F    only Hartree local field effects (RPA)
   LNABLA  =     F    use nabla operator in PAW spheres
   LVEL    =     F    velocity operator in full k-point grid
   LINTERFAST=   F  fast interpolation
   KINTER  =     0    interpolate to denser k-point grid
   CSHIFT  =0.1000    complex shift for real part using Kramers Kronig
   OMEGAMAX=  -1.0    maximum frequency
   DEG_THRESHOLD= 0.2000000E-02 threshold for treating states as degnerate
   RTIME   =   -0.100 relaxation time in fs
  (WPLASMAI=    0.000 imaginary part of plasma frequency in eV, 0.658/RTIME)
   DFIELD  = 0.0000000 0.0000000 0.0000000 field for delta impulse in time
 
 Orbital magnetization related:
   ORBITALMAG=     F  switch on orbital magnetization
   LCHIMAG   =     F  perturbation theory with respect to B field
   DQ        =  0.001000  dq finite difference perturbation B field
   LLRAUG    =     F  two centre corrections for induced B field



--------------------------------------------------------------------------------------------------------


 Static calculation
 charge density and potential will be updated during run
 spin polarized calculation
 Conjugate gradient for all bands (Freysoldt, et al. PRB 79, 241103 (2009))
 preconditioned conjugated gradient                                        
 perform sub-space diagonalisation
    before iterative eigenvector-optimisation
 modified Broyden-mixing scheme, WC =      100.0
 initial mixing is a Kerker type mixing with AMIX =  0.4000 and BMIX =      1.0000
 Hartree-type preconditioning will be used
 using additional bands           51
 real space projection scheme for non local part
 use partial core corrections
 no Harris-corrections to forces 
 use gradient corrections 
 use of overlap-Matrix (Vanderbilt PP)
 Gauss-broadening in eV      SIGMA  =   0.05


--------------------------------------------------------------------------------------------------------


  energy-cutoff  :      520.00
  volume of cell :      323.05
      direct lattice vectors                 reciprocal lattice vectors
    -0.007025000  6.331204000  6.244012000    -0.081906787  0.079107730  0.079848890
     6.079857000 -0.005863000  6.242358000     0.082369207 -0.078705260  0.079896980
     4.072072000  4.238831000 -0.022467000     0.122451569  0.117648327 -0.119153412

  length of vectors
     8.892237024  8.713881392  5.877921689     0.139077676  0.139150033  0.207444092


 
 k-points in units of 2pi/SCALE and weight: pymatgen v2021.2.14 with grid density = 
   0.00000000  0.00000000  0.00000000       0.016
  -0.02047670  0.01977693  0.01996222       0.031
  -0.04095339  0.03955386  0.03992445       0.016
   0.02059230 -0.01967632  0.01997424       0.031
   0.00011561  0.00010062  0.03993647       0.031
  -0.02036109  0.01987755  0.05989869       0.031
   0.04106900 -0.03945325  0.00001202       0.031
   0.04118460 -0.03935263  0.03994849       0.016
   0.02070791 -0.01957570  0.05991071       0.031
   0.00023121  0.00020123  0.07987294       0.016
   0.03061289  0.02941208 -0.02978835       0.031
   0.01013620  0.04918901 -0.00982613       0.031
  -0.01034050  0.06896595  0.01013609       0.031
   0.05108959  0.00963515 -0.04975058       0.031
   0.05120519  0.00973577 -0.00981411       0.031
   0.03072850  0.02951270  0.01014811       0.031
   0.01025180  0.04928963  0.03011034       0.031
   0.07168189 -0.01004117 -0.02977633       0.031
   0.07179750 -0.00994055  0.01016014       0.031
   0.05132080  0.00983638  0.03012236       0.031
   0.03084410  0.02961332  0.05008458       0.031
   0.09227419 -0.02971748 -0.00980209       0.031
   0.01002059  0.04908840 -0.04976260       0.031
  -0.01045611  0.06886533 -0.02980038       0.031
  -0.03093280  0.08864226 -0.00983815       0.031
   0.03049729  0.02931146 -0.06972482       0.031
   0.06122578  0.05882416 -0.05957671       0.016
   0.04074909  0.07860110 -0.03961448       0.031
   0.02027239  0.09837803 -0.01965226       0.016
   0.08181809  0.03914785 -0.03960246       0.031
   0.06134139  0.05892478 -0.01964024       0.031
   0.04086469  0.07870171  0.00032198       0.031
   0.10229478  0.01937092 -0.05956468       0.031
   0.10241039  0.01947153 -0.01962822       0.016
   0.08193369  0.03924847  0.00033401       0.031
   0.06145699  0.05902540  0.02029623       0.016
 
 k-points in reciprocal lattice and weights: pymatgen v2021.2.14 with grid density = 
   0.00000000  0.00000000  0.00000000       0.016
   0.25000000 -0.00000000  0.00000000       0.031
   0.50000000 -0.00000000  0.00000000       0.016
   0.00000000  0.25000000  0.00000000       0.031
   0.25000000  0.25000000  0.00000000       0.031
   0.50000000  0.25000000  0.00000000       0.031
  -0.25000000  0.25000000  0.00000000       0.031
   0.00000000  0.50000000  0.00000000       0.016
   0.25000000  0.50000000  0.00000000       0.031
   0.50000000  0.50000000  0.00000000       0.016
  -0.00000000 -0.00000000  0.25000000       0.031
   0.25000000 -0.00000000  0.25000000       0.031
   0.50000000  0.00000000  0.25000000       0.031
  -0.25000000 -0.00000000  0.25000000       0.031
   0.00000000  0.25000000  0.25000000       0.031
   0.25000000  0.25000000  0.25000000       0.031
   0.50000000  0.25000000  0.25000000       0.031
  -0.25000000  0.25000000  0.25000000       0.031
  -0.00000000  0.50000000  0.25000000       0.031
   0.25000000  0.50000000  0.25000000       0.031
   0.50000000  0.50000000  0.25000000       0.031
  -0.25000000  0.50000000  0.25000000       0.031
   0.00000000 -0.25000000  0.25000000       0.031
   0.25000000 -0.25000000  0.25000000       0.031
   0.50000000 -0.25000000  0.25000000       0.031
  -0.25000000 -0.25000000  0.25000000       0.031
  -0.00000000 -0.00000000  0.50000000       0.016
   0.25000000  0.00000000  0.50000000       0.031
   0.50000000 -0.00000000  0.50000000       0.016
  -0.00000000  0.25000000  0.50000000       0.031
   0.25000000  0.25000000  0.50000000       0.031
   0.50000000  0.25000000  0.50000000       0.031
  -0.25000000  0.25000000  0.50000000       0.031
   0.00000000  0.50000000  0.50000000       0.016
   0.25000000  0.50000000  0.50000000       0.031
   0.50000000  0.50000000  0.50000000       0.016
 
 position of ions in fractional coordinates (direct lattice) 
   0.98329200  0.02021300  0.50450100
   0.98732500  0.32973800  0.01090900
   0.00247300  0.31190300  0.51141200
   0.33387200  0.00216400  0.49612900
   0.34973600  0.32629000  0.99958400
   0.33891400  0.66339000  0.50600400
   0.66867400  0.01165400  0.00474700
   0.67266500  0.32610100  0.99835600
   0.66405800  0.66159300  0.50757900
   0.00129400  0.66352200  0.99135700
   0.31954800  0.01110800  0.02157300
   0.33423500  0.32686900  0.49489700
   0.66566600  0.66283600  0.99671200
   0.34274200  0.65976700  0.98464300
   0.68675400  0.31706000  0.52819800
   0.99371000  0.01292500  0.99426200
   0.66806300  0.00495100  0.48220200
   0.00100500  0.66886100  0.49455500
   0.83780900  0.16787400  0.75590100
   0.17620000  0.14965500  0.25266500
   0.17545900  0.16501600  0.75841600
   0.17373400  0.51104000  0.22835000
   0.15967000  0.50973900  0.74709000
   0.18042400  0.83098800  0.20811600
   0.17324900  0.81354200  0.78023900
   0.49351400  0.16799600  0.26723400
   0.48312000  0.16310900  0.74875400
   0.47860600  0.51926200  0.22234400
   0.49076400  0.51010400  0.75226200
   0.50301100  0.83177900  0.21007100
   0.49775400  0.81916200  0.76859900
   0.82482800  0.16618200  0.27401500
   0.83113600  0.52253500  0.22617000
   0.82045000  0.51764100  0.76870600
   0.84676400  0.82914900  0.24059900
   0.83948200  0.82428000  0.76284900
 
 position of ions in cartesian coordinates  (Angst):
   2.17034892  8.36379821  6.25452921
   2.04224616  6.29526414  8.22296670
   3.97881475  2.18161742  1.95096174
   2.03108437  4.21680604  2.08706271
   6.05171766  6.44940457  4.19811712
   6.09142018  4.28670966  6.24593256
   0.08548734  4.25356491  4.24785027
   6.04329949  8.48872977  6.21333745
   6.08462406  6.35194935  8.26488270
   8.07098687  4.20649713  4.12774880
   0.15313704  2.11450275  2.06411698
   4.00022499  4.21197828  4.11628182
   8.08395482  8.43547476  8.27169297
   8.01841844  6.33983658  6.23646500
   4.07371530  6.58506281  6.25543522
   4.12030779 10.50581354  6.26308156
   1.98896949  6.27358690  4.19146567
   6.08043574  2.09877639  4.17043388
   4.09284760  8.50749204  6.26223623
   1.93751327  2.18568495  2.02871838
   4.09036564  4.32469649  2.10861772
   4.03568728  2.06488623  4.26976147
   6.14022282  4.17470299  4.16216985
   5.89848407  2.01959762  6.30921847
   8.12219133  4.39940623  6.14265962
   2.10612081  4.25631261  4.12419457
   4.03726568  6.23161663  4.01796959
   4.05907728  3.96958643  6.22484550
   6.16117678  6.29284775  6.23168702
   5.90898796  4.07024400  8.32834935
   8.10668157  6.40454064  8.20421630
   2.12037719  6.38268328  6.18144717
   4.09207987  6.21772435  8.44639233
   6.27164577  8.44981622  8.33692957
   6.01489529  6.37603282 10.45764393
   8.11198322  8.54368703 10.37004761
 


--------------------------------------------------------------------------------------------------------


 k-point   1 :   0.0000 0.0000 0.0000  plane waves:    8697
 k-point   2 :   0.2500-0.0000 0.0000  plane waves:    8695
 k-point   3 :   0.5000-0.0000 0.0000  plane waves:    8668
 k-point   4 :   0.0000 0.2500 0.0000  plane waves:    8704
 k-point   5 :   0.2500 0.2500 0.0000  plane waves:    8691
 k-point   6 :   0.5000 0.2500 0.0000  plane waves:    8673
 k-point   7 :  -0.2500 0.2500 0.0000  plane waves:    8700
 k-point   8 :   0.0000 0.5000 0.0000  plane waves:    8696
 k-point   9 :   0.2500 0.5000 0.0000  plane waves:    8685
 k-point  10 :   0.5000 0.5000 0.0000  plane waves:    8674
 k-point  11 :  -0.0000-0.0000 0.2500  plane waves:    8713
 k-point  12 :   0.2500-0.0000 0.2500  plane waves:    8706
 k-point  13 :   0.5000 0.0000 0.2500  plane waves:    8700
 k-point  14 :  -0.2500-0.0000 0.2500  plane waves:    8686
 k-point  15 :   0.0000 0.2500 0.2500  plane waves:    8690
 k-point  16 :   0.2500 0.2500 0.2500  plane waves:    8715
 k-point  17 :   0.5000 0.2500 0.2500  plane waves:    8708
 k-point  18 :  -0.2500 0.2500 0.2500  plane waves:    8692
 k-point  19 :  -0.0000 0.5000 0.2500  plane waves:    8691
 k-point  20 :   0.2500 0.5000 0.2500  plane waves:    8708
 k-point  21 :   0.5000 0.5000 0.2500  plane waves:    8693
 k-point  22 :  -0.2500 0.5000 0.2500  plane waves:    8688
 k-point  23 :   0.0000-0.2500 0.2500  plane waves:    8702
 k-point  24 :   0.2500-0.2500 0.2500  plane waves:    8696
 k-point  25 :   0.5000-0.2500 0.2500  plane waves:    8682
 k-point  26 :  -0.2500-0.2500 0.2500  plane waves:    8696
 k-point  27 :  -0.0000-0.0000 0.5000  plane waves:    8690
 k-point  28 :   0.2500 0.0000 0.5000  plane waves:    8696
 k-point  29 :   0.5000-0.0000 0.5000  plane waves:    8686
 k-point  30 :  -0.0000 0.2500 0.5000  plane waves:    8718
 k-point  31 :   0.2500 0.2500 0.5000  plane waves:    8725
 k-point  32 :   0.5000 0.2500 0.5000  plane waves:    8689
 k-point  33 :  -0.2500 0.2500 0.5000  plane waves:    8712
 k-point  34 :   0.0000 0.5000 0.5000  plane waves:    8724
 k-point  35 :   0.2500 0.5000 0.5000  plane waves:    8710
 k-point  36 :   0.5000 0.5000 0.5000  plane waves:    8720

 maximum and minimum number of plane-waves per node :      1490     1409

 maximum number of plane-waves:      8725
 maximum index in each direction: 
   IXMAX=   16   IYMAX=   16   IZMAX=   10
   IXMIN=  -17   IYMIN=  -16   IZMIN=  -11


 real space projection operators:
  total allocation   :      16973.52 KBytes
  max/ min on nodes  :       2909.84       2678.01


 parallel 3D FFT for wavefunctions:
    minimum data exchange during FFTs selected (reduces bandwidth)
 parallel 3D FFT for charge:
    minimum data exchange during FFTs selected (reduces bandwidth)


 total amount of memory used by VASP MPI-rank0   129472. kBytes
=======================================================================

   base      :      30000. kBytes
   nonlr-proj:       9770. kBytes
   fftplans  :       2112. kBytes
   grid      :       6536. kBytes
   one-center:        186. kBytes
   wavefun   :      80868. kBytes
 
     INWAV:  cpu time    0.0000: real time    0.0000
 Broyden mixing: mesh for mixing (old mesh)
   NGX = 33   NGY = 33   NGZ = 21
  (NGX  =140   NGY  =140   NGZ  = 96)
  gives a total of  22869 points

 initial charge density was supplied:
 charge density of overlapping atoms calculated
 number of electron     257.0000000 magnetization      43.6000000
 charge density for first step will be calculated from the start-wavefunctions


--------------------------------------------------------------------------------------------------------


 Maximum index for non-local projection operator         1816
 Maximum index for augmentation-charges         1016 (set IRDMAX)


--------------------------------------------------------------------------------------------------------


 First call to EWALD:  gamma=   0.258
 Maximum number of real-space cells 3x 3x 4
 Maximum number of reciprocal cells 3x 3x 2

    FEWALD:  cpu time    0.0019: real time    0.0019


--------------------------------------- Iteration      1(   1)  ---------------------------------------


    POTLOK:  cpu time    0.0537: real time    0.0537
atom =   1  type =  1  l = 0
 
 onsite density matrix
 
spin component  1
 
  1.2239
 
spin component  2
 
  0.8159
 
 occupancies and eigenvectors
 
  o =  0.8159  v =  0.0000  1.0000      0.0000  0.0000
  o =  1.2239  v =  1.0000  0.0000      0.0000  0.0000
atom =   2  type =  1  l = 0
 
 onsite density matrix
 
spin component  1
 
  1.2239
 
spin component  2
 
  0.8159
 
 occupancies and eigenvectors
 
  o =  0.8159  v =  0.0000  1.0000      0.0000  0.0000
  o =  1.2239  v =  1.0000  0.0000      0.0000  0.0000
atom =   3  type =  1  l = 0
 
 onsite density matrix
 
spin component  1
 
  1.2239
 
spin component  2
 
  0.8159
 
 occupancies and eigenvectors
 
  o =  0.8159  v =  0.0000  1.0000      0.0000  0.0000
  o =  1.2239  v =  1.0000  0.0000      0.0000  0.0000
atom =   4  type =  1  l = 0
 
 onsite density matrix
 
spin component  1
 
  1.2239
 
spin component  2
 
  0.8159
 
 occupancies and eigenvectors
 
  o =  0.8159  v =  0.0000  1.0000      0.0000  0.0000
  o =  1.2239  v =  1.0000  0.0000      0.0000  0.0000
atom =   5  type =  1  l = 0
 
 onsite density matrix
 
spin component  1
 
  1.2239
 
spin component  2
 
  0.8159
 
 occupancies and eigenvectors
 
  o =  0.8159  v =  0.0000  1.0000      0.0000  0.0000
  o =  1.2239  v =  1.0000  0.0000      0.0000  0.0000
atom =   6  type =  1  l = 0
 
 onsite density matrix
 
spin component  1
 
  1.2239
 
spin component  2
 
  0.8159
 
 occupancies and eigenvectors
 
  o =  0.8159  v =  0.0000  1.0000      0.0000  0.0000
  o =  1.2239  v =  1.0000  0.0000      0.0000  0.0000
atom =   7  type =  1  l = 0
 
 onsite density matrix
 
spin component  1
 
  1.2239
 
spin component  2
 
  0.8159
 
 occupancies and eigenvectors
 
  o =  0.8159  v =  0.0000  1.0000      0.0000  0.0000
  o =  1.2239  v =  1.0000  0.0000      0.0000  0.0000
atom =   8  type =  1  l = 0
 
 onsite density matrix
 
spin component  1
 
  1.2239
 
spin component  2
 
  0.8159
 
 occupancies and eigenvectors
 
  o =  0.8159  v =  0.0000  1.0000      0.0000  0.0000
  o =  1.2239  v =  1.0000  0.0000      0.0000  0.0000
atom =   9  type =  1  l = 0
 
 onsite density matrix
 
spin component  1
 
  1.2239
 
spin component  2
 
  0.8159
 
 occupancies and eigenvectors
 
  o =  0.8159  v =  0.0000  1.0000      0.0000  0.0000
  o =  1.2239  v =  1.0000  0.0000      0.0000  0.0000
atom =  10  type =  2  l = 0
 
 onsite density matrix
 
spin component  1
 
  0.1088
 
spin component  2
 
  0.0965
 
 occupancies and eigenvectors
 
  o =  0.0965  v =  0.0000  1.0000      0.0000  0.0000
  o =  0.1088  v =  1.0000  0.0000      0.0000  0.0000
atom =  11  type =  2  l = 0
 
 onsite density matrix
 
spin component  1
 
  0.1088
 
spin component  2
 
  0.0965
 
 occupancies and eigenvectors
 
  o =  0.0965  v =  0.0000  1.0000      0.0000  0.0000
  o =  0.1088  v =  1.0000  0.0000      0.0000  0.0000
atom =  12  type =  3  l = 2
 
 onsite density matrix
 
spin component  1
 
  0.8527  0.0000  0.0000  0.0000  0.0000
  0.0000  0.8527  0.0000  0.0000  0.0000
  0.0000  0.0000  0.8527  0.0000  0.0000
  0.0000  0.0000  0.0000  0.8527  0.0000
  0.0000  0.0000  0.0000  0.0000  0.8527
 
spin component  2
 
  0.4039  0.0000  0.0000  0.0000  0.0000
  0.0000  0.4039  0.0000  0.0000  0.0000
  0.0000  0.0000  0.4039  0.0000  0.0000
  0.0000  0.0000  0.0000  0.4039  0.0000
  0.0000  0.0000  0.0000  0.0000  0.4039
 
 occupancies and eigenvectors
 
  o =  0.4039  v =  0.0000  0.0000  0.0000  0.0000  0.0000  1.0000  0.0000  0.0000  0.0000  0.0000      0.0000  0.0000  0.0000  0.0000  0.0000  0.0000  0.0000  0.0000  0.0000  0.0000
  o =  0.4039  v =  0.0000  0.0000  0.0000  0.0000  0.0000  0.0000  1.0000  0.0000  0.0000  0.0000      0.0000  0.0000  0.0000  0.0000  0.0000  0.0000  0.0000  0.0000  0.0000  0.0000
  o =  0.4039  v =  0.0000  0.0000  0.0000  0.0000  0.0000  0.0000  0.0000  1.0000  0.0000  0.0000      0.0000  0.0000  0.0000  0.0000  0.0000  0.0000  0.0000  0.0000  0.0000  0.0000
  o =  0.4039  v =  0.0000  0.0000  0.0000  0.0000  0.0000  0.0000  0.0000  0.0000  0.0000 -1.0000      0.0000  0.0000  0.0000  0.0000  0.0000  0.0000  0.0000  0.0000  0.0000  0.0000
  o =  0.4039  v =  0.0000  0.0000  0.0000  0.0000  0.0000  0.0000  0.0000  0.0000 -1.0000  0.0000      0.0000  0.0000  0.0000  0.0000  0.0000  0.0000  0.0000  0.0000  0.0000  0.0000
  o =  0.8527  v =  1.0000  0.0000  0.0000  0.0000  0.0000  0.0000  0.0000  0.0000  0.0000  0.0000      0.0000  0.0000  0.0000  0.0000  0.0000  0.0000  0.0000  0.0000  0.0000  0.0000
  o =  0.8527  v =  0.0000  1.0000  0.0000  0.0000  0.0000  0.0000  0.0000  0.0000  0.0000  0.0000      0.0000  0.0000  0.0000  0.0000  0.0000  0.0000  0.0000  0.0000  0.0000  0.0000
  o =  0.8527  v =  0.0000  0.0000  1.0000  0.0000  0.0000  0.0000  0.0000  0.0000  0.0000  0.0000      0.0000  0.0000  0.0000  0.0000  0.0000  0.0000  0.0000  0.0000  0.0000  0.0000
  o =  0.8527  v =  0.0000  0.0000  0.0000  0.0000 -1.0000  0.0000  0.0000  0.0000  0.0000  0.0000      0.0000  0.0000  0.0000  0.0000  0.0000  0.0000  0.0000  0.0000  0.0000  0.0000
  o =  0.8527  v =  0.0000  0.0000  0.0000 -1.0000  0.0000  0.0000  0.0000  0.0000  0.0000  0.0000      0.0000  0.0000  0.0000  0.0000  0.0000  0.0000  0.0000  0.0000  0.0000  0.0000
atom =  13  type =  3  l = 2
 
 onsite density matrix
 
spin component  1
 
  0.8527  0.0000  0.0000  0.0000  0.0000
  0.0000  0.8527  0.0000  0.0000  0.0000
  0.0000  0.0000  0.8527  0.0000  0.0000
  0.0000  0.0000  0.0000  0.8527  0.0000
  0.0000  0.0000  0.0000  0.0000  0.8527
 
spin component  2
 
  0.4039  0.0000  0.0000  0.0000  0.0000
  0.0000  0.4039  0.0000  0.0000  0.0000
  0.0000  0.0000  0.4039  0.0000  0.0000
  0.0000  0.0000  0.0000  0.4039  0.0000
  0.0000  0.0000  0.0000  0.0000  0.4039
 
 occupancies and eigenvectors
 
  o =  0.4039  v =  0.0000  0.0000  0.0000  0.0000  0.0000  1.0000  0.0000  0.0000  0.0000  0.0000      0.0000  0.0000  0.0000  0.0000  0.0000  0.0000  0.0000  0.0000  0.0000  0.0000
  o =  0.4039  v =  0.0000  0.0000  0.0000  0.0000  0.0000  0.0000  1.0000  0.0000  0.0000  0.0000      0.0000  0.0000  0.0000  0.0000  0.0000  0.0000  0.0000  0.0000  0.0000  0.0000
  o =  0.4039  v =  0.0000  0.0000  0.0000  0.0000  0.0000  0.0000  0.0000  1.0000  0.0000  0.0000      0.0000  0.0000  0.0000  0.0000  0.0000  0.0000  0.0000  0.0000  0.0000  0.0000
  o =  0.4039  v =  0.0000  0.0000  0.0000  0.0000  0.0000  0.0000  0.0000  0.0000  0.0000 -1.0000      0.0000  0.0000  0.0000  0.0000  0.0000  0.0000  0.0000  0.0000  0.0000  0.0000
  o =  0.4039  v =  0.0000  0.0000  0.0000  0.0000  0.0000  0.0000  0.0000  0.0000 -1.0000  0.0000      0.0000  0.0000  0.0000  0.0000  0.0000  0.0000  0.0000  0.0000  0.0000  0.0000
  o =  0.8527  v =  1.0000  0.0000  0.0000  0.0000  0.0000  0.0000  0.0000  0.0000  0.0000  0.0000      0.0000  0.0000  0.0000  0.0000  0.0000  0.0000  0.0000  0.0000  0.0000  0.0000
  o =  0.8527  v =  0.0000  1.0000  0.0000  0.0000  0.0000  0.0000  0.0000  0.0000  0.0000  0.0000      0.0000  0.0000  0.0000  0.0000  0.0000  0.0000  0.0000  0.0000  0.0000  0.0000
  o =  0.8527  v =  0.0000  0.0000  1.0000  0.0000  0.0000  0.0000  0.0000  0.0000  0.0000  0.0000      0.0000  0.0000  0.0000  0.0000  0.0000  0.0000  0.0000  0.0000  0.0000  0.0000
  o =  0.8527  v =  0.0000  0.0000  0.0000  0.0000 -1.0000  0.0000  0.0000  0.0000  0.0000  0.0000      0.0000  0.0000  0.0000  0.0000  0.0000  0.0000  0.0000  0.0000  0.0000  0.0000
  o =  0.8527  v =  0.0000  0.0000  0.0000 -1.0000  0.0000  0.0000  0.0000  0.0000  0.0000  0.0000      0.0000  0.0000  0.0000  0.0000  0.0000  0.0000  0.0000  0.0000  0.0000  0.0000
atom =  14  type =  4  l = 2
 
 onsite density matrix
 
spin component  1
 
  0.7913  0.0000  0.0000  0.0000  0.0000
  0.0000  0.7913  0.0000  0.0000  0.0000
  0.0000  0.0000  0.7913  0.0000 -0.0000
  0.0000  0.0000  0.0000  0.7913  0.0000
  0.0000  0.0000 -0.0000  0.0000  0.7913
 
spin component  2
 
  0.6923  0.0000  0.0000  0.0000  0.0000
  0.0000  0.6923  0.0000  0.0000  0.0000
  0.0000  0.0000  0.6923  0.0000 -0.0000
  0.0000  0.0000  0.0000  0.6923  0.0000
  0.0000  0.0000 -0.0000  0.0000  0.6923
 
 occupancies and eigenvectors
 
  o =  0.6923  v =  0.0000  0.0000  0.0000  0.0000  0.0000  1.0000  0.0000  0.0000  0.0000  0.0000      0.0000  0.0000  0.0000  0.0000  0.0000  0.0000  0.0000  0.0000  0.0000  0.0000
  o =  0.6923  v =  0.0000  0.0000  0.0000  0.0000  0.0000  0.0000  1.0000  0.0000  0.0000  0.0000      0.0000  0.0000  0.0000  0.0000  0.0000  0.0000  0.0000  0.0000  0.0000  0.0000
  o =  0.6923  v =  0.0000  0.0000  0.0000  0.0000  0.0000  0.0000  0.0000  1.0000  0.0000  0.0000      0.0000  0.0000  0.0000  0.0000  0.0000  0.0000  0.0000  0.0000  0.0000  0.0000
  o =  0.6923  v =  0.0000  0.0000  0.0000  0.0000  0.0000  0.0000  0.0000  0.0000  0.0000  1.0000      0.0000  0.0000  0.0000  0.0000  0.0000  0.0000  0.0000  0.0000  0.0000  0.0000
[...]
    177      16.9556      0.00000
    178      17.1083      0.00000
    179      17.2551      0.00000
    180      17.2873      0.00000


--------------------------------------------------------------------------------------------------------


 soft charge-density along one line, spin component           1
         0         1         2         3         4         5         6         7         8         9
 total charge-density along one line
 
 soft charge-density along one line, spin component           2
         0         1         2         3         4         5         6         7         8         9
 total charge-density along one line
 
 pseudopotential strength for first ion, spin component:           1
-37.133   3.930  -0.003   0.001   0.004
  3.930 -10.372  -0.013   0.004   0.018
 -0.003  -0.013   0.165  -0.000  -0.001
  0.001   0.004  -0.000   0.165   0.000
  0.004   0.018  -0.001   0.000   0.164
 pseudopotential strength for first ion, spin component:           2
-37.132   3.931  -0.003   0.001   0.004
  3.931 -10.373  -0.013   0.004   0.018
 -0.003  -0.013   0.166  -0.000  -0.001
  0.001   0.004  -0.000   0.166   0.000
  0.004   0.018  -0.001   0.000   0.165
 total augmentation occupancy for first ion, spin component:           1
  2.000  -0.002   0.008  -0.002  -0.012
 -0.002   0.766  -0.030   0.011   0.041
  0.008  -0.030   0.028   0.001   0.003
 -0.002   0.011   0.001   0.027  -0.001
 -0.012   0.041   0.003  -0.001   0.032
 total augmentation occupancy for first ion, spin component:           2
 -0.000  -0.000   0.000  -0.000   0.000
 -0.000   0.009   0.000  -0.002  -0.000
  0.000   0.000   0.000  -0.000  -0.000
 -0.000  -0.002  -0.000   0.001   0.000
  0.000  -0.000  -0.000   0.000   0.000


------------------------ aborting loop because EDIFF is reached ----------------------------------------


 


 total charge     
 
# of ion       s       p       d       tot
------------------------------------------
    1        2.024   0.062   0.000   2.086
    2        2.020   0.057   0.000   2.078
    3        2.018   0.052   0.000   2.069
    4        2.019   0.055   0.000   2.074
    5        2.020   0.057   0.000   2.077
    6        2.021   0.059   0.000   2.081
    7        2.019   0.054   0.000   2.072
    8        2.022   0.059   0.000   2.081
    9        2.021   0.057   0.000   2.078
   10        0.313   6.440   1.915   8.667
   11        0.332   6.464   2.036   8.832
   12        0.302   6.360   5.635  12.296
   13        0.333   6.445   5.684  12.461
   14        0.419   0.655   7.163   8.237
   15        0.212   6.159   8.811  15.183
   16        0.221   6.196   7.893  14.310
   17        0.221   6.191   7.902  14.314
   18        0.221   6.202   7.918  14.341
   19        1.551   3.476   0.000   5.027
   20        1.570   3.473   0.000   5.043
   21        1.554   3.489   0.000   5.043
   22        1.559   3.459   0.000   5.017
   23        1.560   3.472   0.000   5.031
   24        1.562   3.451   0.000   5.013
   25        1.563   3.447   0.000   5.010
   26        1.554   3.486   0.000   5.040
   27        1.561   3.477   0.000   5.038
   28        1.565   3.437   0.000   5.002
   29        1.558   3.427   0.000   4.985
   30        1.564   3.465   0.000   5.029
   31        1.563   3.444   0.000   5.006
   32        1.552   3.454   0.000   5.006
   33        1.565   3.460   0.000   5.025
   34        1.564   3.449   0.000   5.014
   35        1.555   3.482   0.000   5.036
   36        1.561   3.468   0.000   5.029
--------------------------------------------------
tot         48.840 113.940  54.955 217.734
 


 magnetization (x)
 
# of ion       s       p       d       tot
------------------------------------------
    1        0.001   0.001   0.000   0.001
    2        0.001   0.001   0.000   0.002
    3        0.001   0.001   0.000   0.001
    4        0.001   0.001   0.000   0.001
    5        0.001   0.002   0.000   0.003
    6        0.001   0.002   0.000   0.003
    7        0.001   0.003   0.000   0.004
    8        0.001   0.001   0.000   0.002
    9        0.001   0.001   0.000   0.001
   10        0.004   0.006   0.042   0.052
   11        0.003   0.003   0.021   0.027
   12        0.025   0.038   4.195   4.258
   13        0.026   0.033   3.916   3.974
   14        0.007   0.007   1.052   1.066
   15        0.002  -0.007  -0.554  -0.559
   16        0.007   0.003   1.681   1.692
   17        0.008   0.010   1.734   1.752
   18        0.007   0.006   1.745   1.758
   19        0.000  -0.160   0.000  -0.159
   20        0.000  -0.006   0.000  -0.006
   21        0.009   0.080   0.000   0.089
   22        0.009   0.050   0.000   0.059
   23        0.007   0.075   0.000   0.083
   24        0.007   0.022   0.000   0.029
   25        0.004   0.007   0.000   0.011
   26        0.009   0.199   0.000   0.208
   27        0.007   0.082   0.000   0.089
   28        0.010   0.097   0.000   0.106
   29       -0.001   0.022   0.000   0.022
   30        0.003   0.016   0.000   0.018
   31        0.008  -0.018   0.000  -0.010
   32        0.003  -0.091   0.000  -0.088
   33        0.003   0.010   0.000   0.013
   34        0.006   0.058   0.000   0.064
   35        0.010   0.064   0.000   0.073
   36        0.011   0.114   0.000   0.124
--------------------------------------------------
tot          0.203   0.729  13.833  14.765
 
    FORLOC:  cpu time    0.0057: real time    0.0057
    FORNL :  cpu time    3.7196: real time    3.7199
    STRESS:  cpu time   11.0978: real time   11.0985
    FORCOR:  cpu time    0.0500: real time    0.0500
    OFIELD:  cpu time    0.0002: real time    0.0002

  FORCE on cell =-STRESS in cart. coord.  units (eV):
  Direction    XX          YY          ZZ          XY          YZ          ZX
  --------------------------------------------------------------------------------------
  Alpha Z  1075.98591  1075.98591  1075.98591
  Ewald   -6401.07254 -6673.56643 -6847.97855  -739.61611  -184.91434  -418.17852
  Hartree  3501.33425  3424.50112  3341.04402  -623.67466  -200.92125  -332.70965
  E(xc)   -1475.44827 -1476.64502 -1476.97483    -0.09484     0.08362    -0.11978
  Local   -1369.83581 -1016.94332  -792.00521  1363.04391   386.84825   750.05299
  n-local -1017.96538 -1018.85712 -1029.41176    -0.53556     0.27697    -0.08423
  augment  1553.83741  1549.86676  1566.21794     0.06376    -0.05893     0.25916
  Kinetic  4135.77527  4135.25162  4162.80617     0.82960    -1.32233     0.66381
  Fock        0.00000     0.00000     0.00000     0.00000     0.00000     0.00000
  -------------------------------------------------------------------------------------
  Total       2.61084    -0.40647    -0.31631     0.01610    -0.00801    -0.11622
  in kB      12.94848    -2.01587    -1.56875     0.07987    -0.03970    -0.57641
  external pressure =        3.12 kB  Pullay stress =        0.00 kB


 VOLUME and BASIS-vectors are now :
 -----------------------------------------------------------------------------
  energy-cutoff  :      520.00
  volume of cell :      323.05
      direct lattice vectors                 reciprocal lattice vectors
    -0.007025000  6.331204000  6.244012000    -0.081906787  0.079107730  0.079848890
     6.079857000 -0.005863000  6.242358000     0.082369207 -0.078705260  0.079896980
     4.072072000  4.238831000 -0.022467000     0.122451569  0.117648327 -0.119153412

  length of vectors
     8.892237024  8.713881392  5.877921689     0.139077676  0.139150033  0.207444092


 FORCES acting on ions:
    Electron-Ion                     Ewald-Force                    Non-Local-Force
 -----------------------------------------------------------------------------------------------
   0.176E+02 -.660E+02 -.621E+02   -.158E+02 0.648E+02 0.625E+02   -.184E+01 0.134E+01 -.448E+00
   0.374E+01 -.404E+02 -.181E+02   -.386E+01 0.397E+02 0.177E+02   0.140E+00 0.536E+00 0.436E+00
   0.250E+02 0.910E+01 -.335E+02   -.256E+02 -.860E+01 0.315E+02   0.649E+00 -.440E+00 0.209E+01
   0.461E+02 0.393E+02 0.203E+02   -.456E+02 -.399E+02 -.194E+02   -.604E+00 0.615E+00 -.889E+00
   -.972E+01 0.226E+01 0.408E+02   0.971E+01 -.159E+01 -.400E+02   0.434E-01 -.654E+00 -.763E+00
   -.404E+02 -.114E+02 -.298E+02   0.404E+02 0.123E+02 0.298E+02   0.240E-01 -.882E+00 0.738E-01
   -.287E+02 0.244E+02 0.396E+02   0.293E+02 -.240E+02 -.389E+02   -.516E+00 -.351E+00 -.720E+00
   0.858E+01 0.360E+02 -.229E+02   -.943E+01 -.358E+02 0.228E+02   0.965E+00 -.222E+00 0.190E+00
   0.104E+02 0.381E+02 0.253E+02   -.104E+02 -.375E+02 -.262E+02   0.680E-01 -.548E+00 0.821E+00
   0.906E+02 -.959E+02 0.423E+02   -.906E+02 0.957E+02 -.420E+02   -.175E+00 0.780E-01 -.227E+00
   -.173E+03 -.841E+02 0.100E+02   0.173E+03 0.845E+02 -.101E+02   0.406E+00 -.185E+00 -.703E-01
   -.729E+02 0.139E+03 0.936E+02   0.666E+02 -.137E+03 -.955E+02   0.661E+01 -.269E+01 0.207E+01
   -.113E+03 -.103E+03 0.162E+03   0.112E+03 0.102E+03 -.161E+03   0.177E+01 0.597E+00 -.296E+00
   0.163E+03 0.570E+02 -.498E+02   -.164E+03 -.573E+02 0.501E+02   0.773E+00 0.773E-01 -.286E+00
   -.262E+03 -.341E+02 -.166E+03   0.258E+03 0.429E+02 0.167E+03   0.429E+01 -.891E+01 -.554E+00
   0.705E+02 0.227E+03 -.347E+03   -.709E+02 -.228E+03 0.346E+03   0.249E+00 0.195E+01 0.121E+01
   0.118E+02 0.129E+03 0.201E+03   -.112E+02 -.136E+03 -.194E+03   -.641E+00 0.677E+01 -.740E+01
   0.140E+03 -.186E+03 0.855E+02   -.139E+03 0.185E+03 -.883E+02   -.642E+00 0.798E+00 0.267E+01
   -.367E+01 -.196E+02 -.659E+02   0.414E+01 0.222E+02 0.651E+02   -.443E+00 -.259E+01 0.667E+00
   -.168E+03 -.361E+02 -.319E+02   0.181E+03 0.360E+02 0.326E+02   -.135E+02 0.209E-01 -.822E+00
   0.264E+01 0.123E+03 -.296E+01   -.322E+01 -.129E+03 0.619E+00   0.608E+00 0.653E+01 0.225E+01
   0.240E+03 0.269E+02 0.153E+03   -.245E+03 -.256E+02 -.160E+03   0.478E+01 -.135E+01 0.702E+01
   -.731E+01 -.225E+03 0.142E+02   0.294E+01 0.230E+03 -.147E+02   0.447E+01 -.549E+01 0.542E+00
   -.104E+03 -.181E+03 -.115E+03   0.111E+03 0.185E+03 0.110E+03   -.627E+01 -.396E+01 0.452E+01
   0.207E+03 0.124E+03 -.157E+03   -.210E+03 -.132E+03 0.165E+03   0.303E+01 0.858E+01 -.822E+01
   0.195E+03 0.246E+03 0.645E+02   -.205E+03 -.252E+03 -.643E+02   0.959E+01 0.570E+01 -.206E+00
   -.242E+03 -.134E+03 0.520E+02   0.246E+03 0.140E+03 -.463E+02   -.341E+01 -.642E+01 -.545E+01
   -.972E+01 -.505E+02 0.919E+01   0.102E+02 0.598E+02 -.103E+02   -.471E+00 -.927E+01 0.922E+00
   -.166E+02 0.349E+02 -.115E+01   0.982E+01 -.365E+02 0.936E+00   0.666E+01 0.151E+01 0.180E+00
   -.270E+03 -.109E+03 0.158E+02   0.279E+03 0.118E+03 -.147E+02   -.902E+01 -.934E+01 -.112E+01
   0.864E+02 0.195E+03 0.573E+02   -.901E+02 -.202E+03 -.520E+02   0.370E+01 0.708E+01 -.541E+01
   0.178E+02 0.549E+01 -.240E+03   -.198E+02 -.679E+01 0.245E+03   0.199E+01 0.125E+01 -.519E+01
   -.111E+02 -.191E+03 0.521E+01   0.120E+02 0.198E+03 -.112E+02   -.922E+00 -.600E+01 0.582E+01
   0.276E+03 -.109E+02 0.189E+03   -.290E+03 0.108E+02 -.194E+03   0.130E+02 0.819E-01 0.507E+01
   0.103E+03 0.195E+03 0.194E+03   -.101E+03 -.200E+03 -.199E+03   -.165E+01 0.423E+01 0.522E+01
   -.200E+03 -.683E+02 -.130E+03   0.207E+03 0.622E+02 0.135E+03   -.653E+01 0.633E+01 -.524E+01
 -----------------------------------------------------------------------------------------------
   -.171E+02 0.523E+01 0.151E+01   -.171E-12 0.853E-13 -.142E-12   0.171E+02 -.523E+01 -.153E+01
 
 
 POSITION                                       TOTAL-FORCE (eV/Angst)
 -----------------------------------------------------------------------------------
      2.17035      8.36380      6.25453        -0.075555      0.060305     -0.041394
      2.04225      6.29526      8.22297         0.024241     -0.089269      0.046768
      3.97881      2.18162      1.95096         0.044666      0.065765      0.041817
      2.03108      4.21681      2.08706        -0.070652      0.041749      0.000717
      6.05172      6.44940      4.19812         0.037878      0.017988      0.034172
      6.09142      4.28671      6.24593         0.011705      0.022384      0.044068
      0.08549      4.25356      4.24785         0.012864     -0.001442     -0.093294
      6.04330      8.48873      6.21334         0.123068     -0.017622      0.030664
      6.08462      6.35195      8.26488         0.007675      0.009253     -0.031437
      8.07099      4.20650      4.12775        -0.226896     -0.208424      0.065520
      0.15314      2.11450      2.06412         0.141810      0.305236     -0.128960
      4.00022      4.21198      4.11628         0.222296     -0.187467      0.088593
      8.08395      8.43547      8.27169         0.226370      0.061188      0.025811
      8.01842      6.33984      6.23646        -0.240455     -0.128583      0.026791
      4.07372      6.58506      6.25544         0.348121     -0.180021      0.126816
      4.12031     10.50581      6.26308        -0.106879      0.064456      0.074563
      1.98897      6.27359      4.19147        -0.014223      0.134276     -0.229751
      6.08044      2.09878      4.17043         0.035727      0.058240     -0.099274
      4.09285      8.50749      6.26224         0.021396      0.026421     -0.057357
      1.93751      2.18568      2.02872        -0.228646     -0.060592     -0.083693
      4.09037      4.32470      2.10862         0.027891      0.100117     -0.097377
      4.03569      2.06489      4.26976        -0.136804     -0.021100      0.092616
      6.14022      4.17470      4.16217         0.102260      0.104914      0.048186
      5.89848      2.01960      6.30922         0.156189      0.029597      0.103851
      8.12219      4.39941      6.14266        -0.044991      0.029333     -0.122012
      2.10612      4.25631      4.12419        -0.186197     -0.093503     -0.010508
      4.03727      6.23162      4.01797         0.139079      0.087088      0.203241
      4.05908      3.96959      6.22485        -0.019924      0.085833     -0.181717
      6.16118      6.29285      6.23169        -0.130209     -0.035921     -0.031338
      5.90899      4.07024      8.32835         0.533023     -0.383648     -0.029597
      8.10668      6.40454      8.20422         0.041825     -0.164491     -0.137805
      2.12038      6.38268      6.18145        -0.013164     -0.051744      0.133219
      4.09208      6.21772      8.44639        -0.021800      0.264322     -0.144431
      6.27165      8.44982      8.33693        -0.736920     -0.017941      0.041273
      6.01490      6.37603     10.45764        -0.134667     -0.161979      0.126885
      8.11198      8.54369     10.37005         0.129897      0.235282      0.164375
 -----------------------------------------------------------------------------------
    total drift:                               -0.013539     -0.001921     -0.018212


--------------------------------------------------------------------------------------------------------



  FREE ENERGIE OF THE ION-ELECTRON SYSTEM (eV)
  ---------------------------------------------------
  free  energy   TOTEN  =      -212.27810657 eV

  energy  without entropy=     -212.26963470  energy(sigma->0) =     -212.27387064
 


--------------------------------------------------------------------------------------------------------


    POTLOK:  cpu time    0.5815: real time    0.5815


--------------------------------------------------------------------------------------------------------


     LOOP+:  cpu time 1391.6374: real time 1391.7565
    4ORBIT:  cpu time    0.0000: real time    0.0000
 


 total charge     
 
# of ion       s       p       d       tot
------------------------------------------
    1        2.024   0.062   0.000   2.086
    2        2.020   0.057   0.000   2.078
    3        2.018   0.052   0.000   2.069
    4        2.019   0.055   0.000   2.074
    5        2.020   0.057   0.000   2.077
    6        2.021   0.059   0.000   2.081
    7        2.019   0.054   0.000   2.072
    8        2.022   0.059   0.000   2.081
    9        2.021   0.057   0.000   2.078
   10        0.313   6.440   1.915   8.667
   11        0.332   6.464   2.036   8.832
   12        0.302   6.360   5.635  12.296
   13        0.333   6.445   5.684  12.461
   14        0.419   0.655   7.163   8.237
   15        0.212   6.159   8.811  15.183
   16        0.221   6.196   7.893  14.310
   17        0.221   6.191   7.902  14.314
   18        0.221   6.202   7.918  14.341
   19        1.551   3.476   0.000   5.027
   20        1.570   3.473   0.000   5.043
   21        1.554   3.489   0.000   5.043
   22        1.559   3.459   0.000   5.017
   23        1.560   3.472   0.000   5.031
   24        1.562   3.451   0.000   5.013
   25        1.563   3.447   0.000   5.010
   26        1.554   3.486   0.000   5.040
   27        1.561   3.477   0.000   5.038
   28        1.565   3.437   0.000   5.002
   29        1.558   3.427   0.000   4.985
   30        1.564   3.465   0.000   5.029
   31        1.563   3.444   0.000   5.006
   32        1.552   3.454   0.000   5.006
   33        1.565   3.460   0.000   5.025
   34        1.564   3.449   0.000   5.014
   35        1.555   3.482   0.000   5.036
   36        1.561   3.468   0.000   5.029
--------------------------------------------------
tot         48.840 113.940  54.955 217.734
 


 magnetization (x)
 
# of ion       s       p       d       tot
------------------------------------------
    1        0.001   0.001   0.000   0.001
    2        0.001   0.001   0.000   0.002
    3        0.001   0.001   0.000   0.001
    4        0.001   0.001   0.000   0.001
    5        0.001   0.002   0.000   0.003
    6        0.001   0.002   0.000   0.003
    7        0.001   0.003   0.000   0.004
    8        0.001   0.001   0.000   0.002
    9        0.001   0.001   0.000   0.001
   10        0.004   0.006   0.042   0.052
   11        0.003   0.003   0.021   0.027
   12        0.025   0.038   4.195   4.258
   13        0.026   0.033   3.916   3.974
   14        0.007   0.007   1.052   1.066
   15        0.002  -0.007  -0.554  -0.559
   16        0.007   0.003   1.681   1.692
   17        0.008   0.010   1.734   1.752
   18        0.007   0.006   1.745   1.758
   19        0.000  -0.160   0.000  -0.159
   20        0.000  -0.006   0.000  -0.006
   21        0.009   0.080   0.000   0.089
   22        0.009   0.050   0.000   0.059
   23        0.007   0.075   0.000   0.083
   24        0.007   0.022   0.000   0.029
   25        0.004   0.007   0.000   0.011
   26        0.009   0.199   0.000   0.208
   27        0.007   0.082   0.000   0.089
   28        0.010   0.097   0.000   0.106
   29       -0.001   0.022   0.000   0.022
   30        0.003   0.016   0.000   0.018
   31        0.008  -0.018   0.000  -0.010
   32        0.003  -0.091   0.000  -0.088
   33        0.003   0.010   0.000   0.013
   34        0.006   0.058   0.000   0.064
   35        0.010   0.064   0.000   0.073
   36        0.011   0.114   0.000   0.124
--------------------------------------------------
tot          0.203   0.729  13.833  14.765
 

 total amount of memory used by VASP MPI-rank0   129472. kBytes
=======================================================================

   base      :      30000. kBytes
   nonlr-proj:       9770. kBytes
   fftplans  :       2112. kBytes
   grid      :       6536. kBytes
   one-center:        186. kBytes
   wavefun   :      80868. kBytes
 
  
  
 General timing and accounting informations for this job:
 ========================================================
  
                  Total CPU time used (sec):     1409.261
                            User time (sec):     1378.038
                          System time (sec):       31.223
                         Elapsed time (sec):     1409.692
  
                   Maximum memory used (kb):      267588.
                   Average memory used (kb):           0.
  
                          Minor page faults:        70624
                          Major page faults:           15
                 Voluntary context switches:          566
